Names,Formula,CAS No,SMILES,Reference,Exp logp,C,H,N,O,S,P,F,Cl,Br,I,,,
"2-(hydroxymethyl)-6-(3-phenylpropylsulfanyl)oxane-3,4,5-triol",C15H22O5S1,050615-70-8,OCC1OC(SCCCc2ccccc2)C(O)C(O)C1O,"hansch,c & leo,aj (1985) ",0.38,15,22,0,5,1,0,0,0,0,0,,21,
2-chloroflumethasone,C22H27Cl1F2O5,050629-82-8,C42(C)C=C(Cl)C(=O)C=C4C(F)CC1C3CC(C)C(O)(C(=O)CO)C3(C)CC(O)C21F,"hansch,c et al. (1995) ",2.58,22,27,0,5,0,0,2,1,0,0,,30,
"benzenesulfonamide, 3-iodo-",C6H6I1N1O2S1,050702-39-1,N[S](=O)(=O)c1cccc(I)c1,"carotti,a et al. (1989) ",1.58,6,6,1,2,1,0,0,0,0,1,,11,
1-[2-(ethoxy-ethylphosphoryl)sulfanylethylsulfanyl]ethane,C8H19O2P1S2,050728-06-8,CCO[P](=O)(CC)SCCSCC,"hansch,c & leo,aj (1985) ",2.03,8,19,0,2,2,1,0,0,0,0,,13,
"dipropyl 2-(1,3-dithiolan-2-ylidene)propanedioate",C12H18O4S2,050780-68-2,CCCOC(=O)C(C(=O)OCCC)=C1SCCS1,sangster (1993) ,3.35,12,18,0,4,2,0,0,0,0,0,,18,
"dibutyl 2-(1,3-dithiolan-2-ylidene)propanedioate",C14H22O4S2,050780-69-3,CCCCOC(=O)C(C(=O)OCCCC)=C1SCCS1,biobyte (1995) ,4.6,14,22,0,4,2,0,0,0,0,0,,20,
"ditert-butyl 2-(1,3-dithiolan-2-ylidene)propanedioate",C14H22O4S2,050780-72-8,CC(C)(C)OC(=O)C(C(=O)OC(C)(C)C)=C1SCCS1,sangster (1994) ,4.01,14,22,0,4,2,0,0,0,0,0,,20,
"ethyl propan-2-yl 2-(1,3-dithiolan-2-ylidene)propanedioate",C11H16O4S2,050780-76-2,CCOC(=O)C(C(=O)OC(C)C)=C1SCCS1,sangster (1993) ,2.9,11,16,0,4,2,0,0,0,0,0,,17,
n-[2-(ethoxy-methylphosphoryl)sulfanylethyl]-n-propan-2-ylpropan-2-amine,C11H26N1O2P1S1,050782-69-9,CCO[P](C)(=O)SCCN(C(C)C)C(C)C,"munro,nb et al. (1999) ",2.09,11,26,1,2,1,1,0,0,0,0,,16,
(2-ethoxy-2-oxoethyl) 2-acetyloxybenzoate,C13H14O6,050785-24-5,CCOC(=O)COC(=O)c1ccccc1OC(C)=O,"nielsen,nm & bundgaard,h (1989) ",1.67,13,14,0,6,0,0,0,0,0,0,,19,
n-(3-methoxy-2-methylphenyl)acetamide,C10H13N1O2,050868-74-1,COc1cccc(NC(C)=O)c1C,"nakagawa,y et al. (1992) ",1.13,10,13,1,2,0,0,0,0,0,0,,13,
n-(3-methylphenyl)-2-phenylacetamide,C15H15N1O1,050916-16-0,Cc1cccc(NC(=O)Cc2ccccc2)c1,"yamagami,c et al. (1984) ",3.14,15,15,1,1,0,0,0,0,0,0,,17,
n-(3-methoxyphenyl)-2-phenylacetamide,C15H15N1O2,050916-19-3,COc1cccc(NC(=O)Cc2ccccc2)c1,"yamagami,c et al. (1984) ",2.86,15,15,1,2,0,0,0,0,0,0,,18,
n-(4-methoxyphenyl)-2-phenylacetamide,C15H15N1O2,050916-21-7,COc1ccc(NC(=O)Cc2ccccc2)cc1,"yamagami,c et al. (1984) ",2.49,15,15,1,2,0,0,0,0,0,0,,18,
"4-amino-3-morpholin-4-yl-6-propan-2-yl-1,2,4-triazin-5-one",C10H17N5O2,050917-19-6,CC(C)C1=NN=C(N2CCOCC2)N(N)C1=O,"hansch,c & leo,aj (1985) ",0.49,10,17,5,2,0,0,0,0,0,0,,17,
"4-amino-3-ethylsulfanyl-6-propan-2-yl-1,2,4-triazin-5-one",C8H14N4O1S1,050917-22-1,CCSC1=NN=C(C(C)C)C(=O)N1N,"hansch,c & leo,aj (1985) ",1.52,8,14,4,1,1,0,0,0,0,0,,14,
"4-amino-6-propan-2-yl-3-propylsulfanyl-1,2,4-triazin-5-one",C9H16N4O1S1,050917-23-2,CCCSC1=NN=C(C(C)C)C(=O)N1N,"hansch,c & leo,aj (1985) ",2.12,9,16,4,1,1,0,0,0,0,0,,15,
"4-amino-6-propan-2-yl-3-propan-2-ylsulfanyl-1,2,4-triazin-5-one",C9H16N4O1S1,050917-24-3,CC(C)SC1=NN=C(C(C)C)C(=O)N1N,"hansch,c & leo,aj (1985) ",2.06,9,16,4,1,1,0,0,0,0,0,,15,
"4-amino-3-butylsulfanyl-6-propan-2-yl-1,2,4-triazin-5-one",C10H18N4O1S1,050917-25-4,CCCCSC1=NN=C(C(C)C)C(=O)N1N,sangster (1994) ,3.21,10,18,4,1,1,0,0,0,0,0,,16,
acetyloleandrin,C34H50O10,051008-91-4,CC1C(C(C(C(O1)OC2CCC3(C(C2)CCC4C3CCC5(C4(CCC5C6=CC(=O)OC6)OC(=O)C)C)C)O)OC)OC(=O)C,"hansch,c et al. (1995) ",2.95,34,50,0,10,0,0,0,0,0,0,,44,
n-(2-diethylaminoethyl)-2-methoxy-5-methylsulfonylbenzamide,C15H24N2O4S1,051012-32-9,CCN(CC)CCNC(=O)c1cc(ccc1OC)[S](C)(=O)=O,"hansch,c & leo,aj (1985) ",0.9,15,24,2,4,1,0,0,0,0,0,,22,
o-methyl [2-(2-ethyl-5-nitroimidazol-1-yl)ethylamino]methanethioate,C9H14N4O3S1,051022-76-5,CCc1ncc(n1CCNC(=S)OC)[N+]([O-])=O,sangster (1994) ,1.46,9,14,4,3,1,0,0,0,0,0,,17,
4-oxochroman-2-carboxylic acid,C10H8O4,051048-00-1,OC(=O)C1CC(=O)c2ccccc2O1,pomona (1987) ,1.26,10,8,0,4,0,0,0,0,0,0,,14,
n-propylpyridine-3-carboxamide,C9H12N2O1,051055-31-3,CCCNC(=O)c1cccnc1,"hansch,c et al. (1995) ",0.66,9,12,2,1,0,0,0,0,0,0,,12,
(4-carbamoylphenyl) acetate,C9H9N1O3,051074-95-4,CC(=O)Oc1ccc(cc1)C(N)=O,"hansch,c et al. (1995) ",0.27,9,9,1,3,0,0,0,0,0,0,,13,
"10,13-dimethyl-3,5'-dioxospiro[2,6,7,8,9,11,12,14,15,16-decahydro-1h-cyclopenta[a]phenanthrene-17,2'-oxolane]-7-carbonitrile",C23H29N1O3,051092-19-4,CC12CCC(=O)C=C1CC(C#N)C3C2CCC4(C)C3CCC45CCC(=O)O5,biobyte (1995) ,1.67,23,29,1,3,0,0,0,0,0,0,,27,
et-n-cl-acetyl-n-(2clph)glycinate,C12H13Cl2N1O3,051114-25-1,CCOC(=O)CN(C(=O)CCl)c1c(Cl)cccc1,"hansch,c & leo,aj (1985) ",2.3,12,13,1,3,0,0,0,2,0,0,,18,
et-n-cl-acetyl-n-(phenyl)glycinate,C12H14Cl1N1O3,051114-26-2,ClCC(=O)N(c1ccccc1)CC(=O)OCC,"hansch,c & leo,aj (1985) ",1.6,12,14,1,3,0,0,0,1,0,0,,17,
"(7,7-dimethyl-2-bicyclo[3.1.1]heptanyl)methanol",C10H18O1,053369-17-8,CC1(C)C2CCC(CO)C1C2,"griffin,s et al. (1999) ",3.41,10,18,0,1,0,0,0,0,0,0,,11,
butaclamol,C25H31N1O1,051152-91-1,[Cl-].CC(C)(C)[C@]1(O)CCN2C[C@H]3c4ccccc4CCc5cccc([C@@H]2C1)c35.[H+],"hansch,c et al. (1995) ",5.2,25,31,1,1,0,0,0,0,0,0,,27,
"phenylmethyl n,n-diethylcarbamate",C12H17N1O2,051170-56-0,CCN(CC)C(=O)OCc1ccccc1,"tanaka,m et al. (1985) ",2.93,12,17,1,2,0,0,0,0,0,0,,15,
s-metolachlor,C15H22Cl1N1O2,087392-12-9,N(C(C)COC)(C(=O)CCl)c1c(CC)cccc1C,wssa (1998) ,2.9,15,22,1,2,0,0,0,1,0,0,,19,
pretilchlor,C17H26Cl1N1O2,051218-49-6,CCCOCCN(c1c(CC)cccc1CC)C(=O)CCl,"tomlin,c (1997) ",4.08,17,26,1,2,0,0,0,1,0,0,,21,
"3-buten-2-one,4-(4-cyanophenyl)-",C11H9N1O1,051220-06-5,CC(=O)C=Cc1ccc(C(#N))cc1,"yamagami,c et al. (1998) ",1.64,11,9,1,1,0,0,0,0,0,0,,13,
"7cl-1,3-h2-1-ohet-3-oh-5ph-1,4-benzodiazepin-2-o",C17H15Cl1N2O3,051230-34-3,c1ccc(C2=NC(O)C(=O)N(CCO)c3c2cc(Cl)cc3)cc1,biobyte starlist (2009) ,1.53,17,15,2,3,0,0,0,1,0,0,,23,
oraflex (uniprofen) (opren) (coxigon),C16H12Cl1N1O3,051234-28-7,c1cc2oc(c3ccc(Cl)cc3)nc2cc1C(C)C(=O)O,"jack,db et al. (1988) ",3.23,16,12,1,3,0,0,0,1,0,0,,21,
"3-cyclohexyl-6-dimethylamino-1-methyl-1,3,5-triazine-2,4-dione",C12H20N4O2,051235-04-2,CN(C)C1=NC(=O)N(C2CCCCC2)C(=O)N1C,biobyte (1995) ,1.85,12,20,4,2,0,0,0,0,0,0,,18,
(2-methoxyphenyl)-pyridin-4-ylmethanone,C13H11N1O2,051246-73-2,COc1ccccc1C(=O)c2ccncc2,"hansch,c et al. (1995) ",1.86,13,11,1,2,0,0,0,0,0,0,,16,
4-(pyridine-4-carbonyl)benzenesulfonamide,C12H10N2O3S1,051246-76-5,N[S](=O)(=O)c1ccc(cc1)C(=O)c2ccncc2,"hansch,c et al. (1995) ",0.56,12,10,2,3,1,0,0,0,0,0,,18,
(4-hydroxyphenyl)-pyridin-4-ylmethanone,C12H9N1O2,051246-77-6,Oc1ccc(cc1)C(=O)c2ccncc2,"hansch,c & leo,aj (1985) ",1.37,12,9,1,2,0,0,0,0,0,0,,15,
4-amino-1-[4-fluoro-5-(hydroxymethyl)oxolan-2-yl]pyrimidin-2-one,C9H12F1N3O3,051246-79-8,NC1=NC(=O)N(C=C1)C2CC(F)C(CO)O2,"kerr,sg & kalman,si (1992) ",-0.89,9,12,3,3,0,0,1,0,0,0,,16,
3-methyl-1-[4-(5-methyl-1h-imidazol-4-yl)butyl]thiourea,C10H18N4S1,051264-00-7,CNC(=S)NCCCCc1nc[nH]c1C,sangster (1994) ,0.85,10,18,4,0,1,0,0,0,0,0,,15,
"propanoic acid, 2-(4-formyl-2-methoxyphenoxy)eth",C13H16O5,051264-74-5,CCC(=O)OCCOc1c(OC)cc(C(=O))cc1,pomona (1987) ,1.33,13,16,0,5,0,0,0,0,0,0,,18,
"1,4-benzdazepin-2-one-5-(2fph)-7-et",C17H15F1N2O1,051307-86-9,Fc3ccccc3C1c2cc(CC)ccc2NC(=O)CN=1,"hansch,c & leo,aj (1985) ",2.92,17,15,2,1,0,0,1,0,0,0,,21,
1-[(4-tert-butylphenyl)methylsulfanyl]-1-butylsulfanyl-n-pyridin-3-ylmethanimine,C21H28N2S2,051308-54-4,CCCCSC(SCc1ccc(cc1)C(C)(C)C)=Nc2cccnc2,sangster (1994) ,7,21,28,2,0,2,0,0,0,0,0,,25,
"(4-(2,4-dichlorophenoxy)phenoxy)acetic acid",C14H10Cl2O4,051338-10-4,OC(=O)COc1ccc(Oc2ccc(Cl)cc2Cl)cc1,sangster (1994) ,4.51,14,10,0,4,0,0,0,2,0,0,,20,
diclofop-methyl,C16H14Cl2O4,051338-27-3,COC(=O)C(C)Oc1ccc(Oc2ccc(Cl)cc2Cl)cc1,"krawchuk,bp & webster,grb (1987) ",4.62,16,14,0,4,0,0,0,2,0,0,,22,
"2-(4-methoxyphenoxy)-n,n-dimethylethanamine",C11H17N1O2,051344-12-8,COc1ccc(OCCN(C)C)cc1,"al-saadi,d et al. (1993) ",1.23,11,17,1,2,0,0,0,0,0,0,,14,
"n,n-dimethyl-2-(4-methylphenoxy)ethanamine",C11H17N1O1,051344-14-0,CN(C)CCOc1ccc(C)cc1,"al-saadi,d et al. (1993) ",2.17,11,17,1,1,0,0,0,0,0,0,,13,
methyl n-(3-methoxyphenyl)carbamate,C9H11N1O3,051422-77-6,COC(=O)Nc1cccc(OC)c1,"takahashi,k et al. (1988) ",1.92,9,11,1,3,0,0,0,0,0,0,,13,
4-bromo-2-fluoro-1-methylbenzene,C7H6Br1F1,051436-99-8,Cc1ccc(Br)cc1F,biobyte starlist (2009) ,3.64,7,6,0,0,0,0,1,0,1,0,,9,
thiophene-3-carboxamide,C5H5N1O1S1,051460-47-0,NC(=O)c1cscc1,"hansch,c et al. (1995) ",0.5,5,5,1,1,1,0,0,0,0,0,,8,
cimetidine,C10H16N6S1,051481-61-9,CN=C(NCCSCc1nc[nH]c1C)NC#N,"hansch,c et al. (1995) ",0.4,10,16,6,0,1,0,0,0,0,0,,17,
1-benzothiophene 1-oxide,C8H6O1S1,051500-42-6,O=s1ccc2ccccc12,"andersson,jt & schrader,w (1999) ",1.01,8,6,0,1,1,0,0,0,0,0,,10,
tianafac,C11H9Cl1O2S1,051527-19-6,Cc1c(CC(O)=O)sc2ccc(Cl)cc12,"hansch,c et al. (1995) ",3.92,11,9,0,2,1,0,0,1,0,0,,15,
n1-methyl-n1-(2-pyridyl)sulfanilamide,C12H13N3O2S1,051543-29-4,CN(c1ccccn1)[S](=O)(=O)c2ccc(N)cc2,"hansch,c et al. (1995) ",1.3,12,13,3,2,1,0,0,0,0,0,,18,
"3-(n,n-dimecarbam)-2-cl-pyridine",C8H9Cl1N2O2,051581-34-1,CN(C)C(=O)Oc1c(Cl)nccc1,"hansch,c & leo,aj (1985) ",1.04,8,9,2,2,0,0,0,1,0,0,,13,
"(2-bromopyridin-3-yl) n,n-dimethylcarbamate",C8H9Br1N2O2,051581-35-2,CN(C)C(=O)Oc1cccnc1Br,"hansch,c & leo,aj (1985) ",1.14,8,9,2,2,0,0,0,0,1,0,,13,
"3-(n,n-dimecarbam)-2-i-pyridine",C8H9I1N2O2,051581-36-3,CN(C)C(=O)Oc1c(I)nccc1,"hansch,c & leo,aj (1985) ",1.26,8,9,2,2,0,0,0,0,0,1,,13,
milbemectin a3,C31H44O7,051596-10-2,CC1=CC2C(=O)OC3CC5(CCC(C)C(C)O5)OC(CC=C(C)CC(C)C=CC=C4COC(C1O)C24O)C3,"tomlin,c (1997) ",5.3,31,44,0,7,0,0,0,0,0,0,,38,
milbemectin a4,C32H46O7,051596-11-3,CCC1C(CCC2(O1)CC3CC(O2)CC=C(CC(C=CC=C4COC5C4(C(C=C(C5O)C)C(=O)O3)O)C)C)C,"tomlin,c (1997) ",5.9,32,46,0,7,0,0,0,0,0,0,,39,
esfenvalerate,C25H22Cl1N1O3,066230-04-4,CC(C)[C@@H](C(=O)O[C@@H](C#N)c1cccc(Oc2ccccc2)c1)c3ccc(Cl)cc3,"tomlin,c (1997) ",6.22,25,22,1,3,0,0,0,1,0,0,,30,
"4-(4-aminophenyl)sulfonyl-n,n-diethylaniline",C16H20N2O2S1,051688-32-5,CCN(CC)c1ccc(cc1)[S](=O)(=O)c2ccc(N)cc2,"altomare,c et al. (1991) ",3,16,20,2,2,1,0,0,0,0,0,,21,
n-(4-bromo-2-ethylphenyl)acetamide,C10H12Br1N1O1,051688-73-4,CCc1cc(Br)ccc1NC(C)=O,"nakagawa,y et al. (1992) ",2.27,10,12,1,1,0,0,0,0,1,0,,13,
1-phenyl-3-(thiadiazol-5-yl)urea,C9H8N4O1S1,not,O=C(Nc1snnc1)Nc2ccccc2,daylight (1999) ,1.77,9,8,4,1,1,0,0,0,0,0,,15,
"1,4-benzdazepin-2-one-5-(2clph)-7br",C15H10Br1Cl1N2O1,051753-57-2,Brc1ccc2c(C(c3ccccc3Cl)=NCC(=O)N2)c1,"hansch,c & leo,aj (1985) ",3.3,15,10,2,1,0,0,0,1,1,0,,20,
n-bis(dimethylamino)phosphoryl-n-ethylethanamine,C8H22N3O1P1,051754-90-6,CCN(CC)[P](=O)(N(C)C)N(C)C,"debord,j & labadie,m (1985) ",0.66,8,22,3,1,0,1,0,0,0,0,,13,
heptachlorobornane (parlar 32),C10H11Cl7,not,C1C(Cl)(Cl)C2(CCl)C(CCl)(CCl)C1C(Cl)C2Cl,"fisk,at et al. (1999) ",5.23,10,11,0,0,0,0,0,7,0,0,,17,
n-[4-nitro-2-(phenoxy)phenyl]methanesulfonamide,C13H12N2O5S1,051803-78-2,C[S](=O)(=O)Nc1ccc(cc1Oc2ccccc2)[N+]([O-])=O,sangster (1993) ,2.6,13,12,2,5,1,0,0,0,0,0,,21,
"2,4-dichlorodiphenyl ether",C12H8Cl2O1,051892-26-3,Clc2cc(Cl)ccc2Oc1ccccc1,"kurz,j & ballschmiter,k (1999) ",4.93,12,8,0,1,0,0,0,2,0,0,,15,
"2,2',3,4',5,5'-hexachlorobiphenyl",C12H4Cl6,051908-16-8,Clc1cc(Cl)c(Cl)c(c1)c2cc(Cl)c(Cl)cc2Cl,biobyte (1995) ,7.12,12,4,0,0,0,0,0,6,0,0,,18,
chroman-2-carboxylic acid,C10H10O3,051939-71-0,OC(=O)C1CCc2ccccc2O1,"hansch,c & leo,aj (1985) ",1.9,10,10,0,3,0,0,0,0,0,0,,13,
"8-ethyl-5-oxo-2-piperazin-1-ylpyrido[6,5-d]pyrimidine-6-carboxylic acid",C14H17N5O3,051940-44-4,CCN1C=C(C(O)=O)C(=O)c2cnc(nc12)N3CCNCC3,"hansch,c et al. (1995) ",-2.15,14,17,5,3,0,0,0,0,0,0,,22,
5-oxo-5-(4-phenylphenyl)pentanoic acid,C17H16O3,051994-35-5,OC(=O)CCCC(=O)c1ccc(cc1)c2ccccc2,"kuchar,m et al. (1985) ",3.35,17,16,0,3,0,0,0,0,0,0,,20,
3-ethylthiophene,C6H8S1,052006-63-0,CCc1cscc1,"hansch,c et al. (1995) ",2.82,6,8,0,0,1,0,0,0,0,0,,7,
"3-[3,5-dihydroxy-2-(hydroxymethyl)-6-methoxyoxan-4-yl]-1-methyl-1-nitrosourea",C9H17N3O7,052019-12-2,COC1OC(CO)C(O)C(NC(=O)N(C)N=O)C1O,pomona (1987) ,-1.45,9,17,3,7,0,0,0,0,0,0,,19,
n-(methoxy-methylsulfanylphosphoryl)-2-methylpropan-2-amine,C6H16N1O2P1S1,052067-44-4,CO[P](=O)(NC(C)(C)C)SC,"hansch,c & leo,aj (1985) ",0.96,6,16,1,2,1,1,0,0,0,0,,11,
n-(methoxy-methylsulfanylphosphoryl)ethanamine,C4H12N1O2P1S1,052067-48-8,CCN[P](=O)(OC)SC,"hansch,c & leo,aj (1985) ",0.07,4,12,1,2,1,1,0,0,0,0,,9,
n-(methoxy-methylsulfanylphosphoryl)butan-1-amine,C6H16N1O2P1S1,052067-49-9,CCCCN[P](=O)(OC)SC,"hansch,c & leo,aj (1985) ",0.94,6,16,1,2,1,1,0,0,0,0,,11,
n-(methoxy-methylsulfanylphosphoryl)butan-2-amine,C6H16N1O2P1S1,052067-50-2,CCC(C)N[P](=O)(OC)SC,"hansch,c & leo,aj (1985) ",0.95,6,16,1,2,1,1,0,0,0,0,,11,
n-(methoxy-methylsulfanylphosphoryl)-2-methylpropan-1-amine,C6H16N1O2P1S1,052067-51-3,CO[P](=O)(NCC(C)C)SC,"hansch,c & leo,aj (1985) ",0.97,6,16,1,2,1,1,0,0,0,0,,11,
n-(methoxy-methylsulfanylphosphoryl)hexan-1-amine,C8H20N1O2P1S1,052067-52-4,CCCCCCN[P](=O)(OC)SC,"hansch,c & leo,aj (1985) ",1.11,8,20,1,2,1,1,0,0,0,0,,13,
"2,3,5,6-tetramethoxybenzene-1,4-diol",C10H14O6,052092-59-8,COc1c(O)c(OC)c(OC)c(O)c1OC,"hansch,c et al. (1995) ",0.39,10,14,0,6,0,0,0,0,0,0,,16,
"benzenesulfonamide, 4-chloro-n-[(methylamino)car",C8H9Cl1N2O3S1,052102-43-9,Clc1ccc(S(=O)(=O)NC(=O)NC)cc1,sangster (1993) ,1.16,8,9,2,3,1,0,0,1,0,0,,15,
"2-methylpropyl n,n-dimethylcarbamate",C7H15N1O2,052113-78-7,CC(C)COC(=O)N(C)C,sangster (1994) ,2,7,15,1,2,0,0,0,0,0,0,,10,
n-(4-bromo-3-ethylphenyl)acetamide,C10H12Br1N1O1,052121-41-2,CCc1cc(NC(C)=O)ccc1Br,"nakagawa,y et al. (1992) ",3.33,10,12,1,1,0,0,0,0,1,0,,13,
"5-methyl-6-[[(3,4,5-trimethoxyphenyl)amino]methyl]quinazoline-2,4-diamine",C19H23N5O3,052128-35-5,COc1cc(NCc2ccc3nc(N)nc(N)c3c2C)cc(OC)c1OC,"hansch,c et al. (1995) ",2.55,19,23,5,3,0,0,0,0,0,0,,27,
methyl 3-acetamidobenzoate,C10H11N1O3,052189-36-3,COC(=O)c1cccc(NC(C)=O)c1,pomona (1987) ,1.46,10,11,1,3,0,0,0,0,0,0,,14,
4-pentyl-1h-pyrazole,C8H14N2,052222-71-6,CCCCCc1c[nH]nc1,"hansch,c et al. (1995) ",2.96,8,14,2,0,0,0,0,0,0,0,,10,
2-ethylanthracene,C16H14,052251-71-5,CCc1ccc2cc3ccccc3cc2c1,sangster (1993) ,5.85,16,14,0,0,0,0,0,0,0,0,,16,
"2-[[4,6-bis(dimethylamino)-1,3,5-triazin-2-yl]-methylamino]ethanol",C10H20N6O1,052298-71-2,CN(C)c1nc(nc(n1)N(C)CCO)N(C)C,sangster (1993) ,1.96,10,20,6,1,0,0,0,0,0,0,,17,
alpha-cypermethrin,C22H19Cl2N1O3,067375-30-8,C1(C)(C)C(C(=O)OC(c2cccc(Oc3ccccc3)c2)C(#N))C1C=C(Cl)Cl,"tomlin,c (1997) ",6.94,22,19,1,3,0,0,0,2,0,0,,28,
"alanine, n-[[(2-chloroethyl)nitrosoamino>carbony",C7H12Cl1N3O4,052320-87-3,ClCCN(C(=O)NC(C)(C)C(=O)O)N=O,pomona (1987) ,1.74,7,12,3,4,0,0,0,1,0,0,,15,
"cyclopentanecarboxylic acid, 1-[[[(2-chloroethyl",C9H14Cl1N3O4,052320-88-4,ClCCN(C(=O)NC1(C(=O)O)CCCC1)N=O,pomona (1987) ,2.01,9,14,3,4,0,0,0,1,0,0,,17,
"benzene, 1,2,4-trichloro-5-phenoxy-",C12H7Cl3O1,052322-80-2,Clc1cc(Cl)c(Oc2ccccc2)cc1Cl,"opperhuizen,a & voors,pi (1987) ",5.44,12,7,0,1,0,0,0,3,0,0,,16,
2-[(3-iodobenzoyl)amino]acetic acid,C9H8I1N1O3,052386-94-4,OC(=O)CNC(=O)c1cccc(I)c1,"laznicek,m & kvetina,j (1988) ",1.88,9,8,1,3,0,0,0,0,0,1,,14,
n-(ethylaminomethyl)benzamide,C10H14N2O1,052387-57-2,CCNCNC(=O)c1ccccc1,"hansch,c & leo,aj (1985) ",0.56,10,14,2,1,0,0,0,0,0,0,,13,
"4,5,6,7,8,9-hexahydrocycloocta[d]dithiole-3-thione",C9H12S3,052398-34-2,S=C1SSC2=C1CCCCCC2,"bona,m et al. (1995) ",3.75,9,12,0,0,3,0,0,0,0,0,,12,
n-methyl-n-(2-methylsulfanylphenyl)diazenylmethanamine,C9H13N3S1,052416-13-4,CSc1ccccc1N=NN(C)C,"hansch,c & leo,aj (1985) ",3.13,9,13,3,0,1,0,0,0,0,0,,13,
n-methyl-n-(3-methylsulfanylphenyl)diazenylmethanamine,C9H13N3S1,052416-14-5,CSc1cccc(c1)N=NN(C)C,"hansch,c & leo,aj (1985) ",2.98,9,13,3,0,1,0,0,0,0,0,,13,
flunarizine,C26H26F2N2,052468-60-7,Fc1ccc(cc1)C(N2CCN(CC2)C\C=C\c3ccccc3)c4ccc(F)cc4,biobyte (1995) ,5.78,26,26,2,0,0,0,2,0,0,0,,30,
5-ethyldithiole-3-thione,C5H6S3,052514-89-3,CCC1=CC(=S)SS1,"bona,m et al. (1995) ",2.31,5,6,0,0,3,0,0,0,0,0,,8,
"2,3-dimethoxybenzene-1,4-diol",C8H10O4,052643-52-4,COc1c(O)ccc(O)c1OC,sangster (1994) ,0.61,8,10,0,4,0,0,0,0,0,0,,12,
permethrin,C21H20Cl2O3,052645-53-1,CC1(C)[C@@H](C=C(Cl)Cl)[C@H]1C(=O)OCc2cccc(Oc3ccccc3)c2,"hansch,c et al. (1995) ",6.5,21,20,0,3,0,0,0,2,0,0,,26,
"acetamide, n-[5-[(5-nitro-2-furanyl)methylene]-4",C10H7N3O5S1,052661-42-4,CC(=O)NC1=NC(=O)C(=Cc2ccc(N(=O)(=O))o2)S1,sangster (1994) ,1.03,10,7,3,5,1,0,0,0,0,0,,19,
"acetamide, n-methyl-n-[5-[(5-nitro-2-furanyl)met",C11H9N3O5S1,052661-43-5,CC(=O)N(C)C1=NC(=O)C(=Cc2ccc(N(=O)(=O))o2)S1,sangster (1994) ,1.05,11,9,3,5,1,0,0,0,0,0,,20,
2-mes-5-(5no2-2-furfurild)thiazolone,C9H6N2O4S2,052661-45-7,CSC1=NC(=O)C(=Cc2ccc(N(=O)(=O))o2)S1,"hansch,c & leo,aj (1985) ",1.41,9,6,2,4,2,0,0,0,0,0,,17,
3-me-2-acetimino-5-(5no2-2-furfurilidene)thiazol,C11H9N3O5S1,052661-66-2,CC(=O)N=C1SC(=Cc2ccc(N(=O)(=O))o2)C(=O)N1C,"hansch,c & leo,aj (1985) ",1.21,11,9,3,5,1,0,0,0,0,0,,20,
"acetamide, n-[5-[(5-nitro-2-furanyl)methylene]-4",C13H13N3O5S1,052661-68-4,CC(=O)N=C1SC(=Cc2ccc(N(=O)(=O))o2)C(=O)N1CCC,"akerblom,eb (1974) ",1.17,13,13,3,5,1,0,0,0,0,0,,22,
"2,4-thiazolidinedione, 5-[(5-nitro-2-furanyl)met",C11H10N2O5S1,052661-71-9,CCCN1C(=O)C(=Cc2ccc(N(=O)(=O))o2)SC1(=O),sangster (1993) ,2.4,11,10,2,5,1,0,0,0,0,0,,19,
3-amino-1-cyclohexylurea,C7H15N3O1,052662-76-7,NNC(=O)NC1CCCCC1,"hansch,c & leo,aj (1985) ",0.15,7,15,3,1,0,0,0,0,0,0,,11,
"2,2',3,4-tetrachlorobiphenyl",C12H6Cl4,052663-59-9,Clc1ccc(c(Cl)c1Cl)c2ccccc2Cl,"hansch,c & leo,aj (1985) ",6.11,12,6,0,0,0,0,0,4,0,0,,16,
"2,2',3,3',6-pentachlorobiphenyl",C12H5Cl5,052663-60-2,Clc1cccc(c1Cl)c2c(Cl)ccc(Cl)c2Cl,"rapaport,ra & eisenreich,sj (1984) ",6.04,12,5,0,0,0,0,0,5,0,0,,17,
"2,2',3,5,5'-pentachlorobiphenyl",C12H5Cl5,052663-61-3,Clc1ccc(Cl)c(c1)c2cc(Cl)cc(Cl)c2Cl,"hansch,c & leo,aj (1985) ",6.79,12,5,0,0,0,0,0,5,0,0,,17,
"2,2',3,3',4,5'-hexachlorobiphenyl",C12H4Cl6,052663-66-8,Clc1cc(Cl)c(Cl)c(c1)c2ccc(Cl)c(Cl)c2Cl,"hansch,c & leo,aj (1985) ",7.39,12,4,0,0,0,0,0,6,0,0,,18,
"2,3',4,4',5,5'-hexachlorobiphenyl",C12H4Cl6,052663-72-6,Clc1cc(Cl)c(cc1Cl)c2cc(Cl)c(Cl)c(Cl)c2,biobyte (1995) ,7.5,12,4,0,0,0,0,0,6,0,0,,18,
"2,3,4,5,6,2',3',5',6'-pcb",C12H1Cl9,052663-77-1,c1(c2c(Cl)c(Cl)cc(Cl)c2Cl)c(Cl)c(Cl)c(Cl)c(Cl)c1Cl,"hansch,c et al. (1995) ",8.16,12,1,0,0,0,0,0,9,0,0,,21,
"2,2',3,3',5,6-hexachlorobiphenyl",C12H4Cl6,052704-70-8,Clc1cccc(c1Cl)c2c(Cl)c(Cl)cc(Cl)c2Cl,biobyte (1995) ,7.25,12,4,0,0,0,0,0,6,0,0,,18,
"2,2',3,4,5,5'-hexachlorobiphenyl",C12H4Cl6,052712-04-6,Clc1ccc(Cl)c(c1)c2cc(Cl)c(Cl)c(Cl)c2Cl,biobyte (1995) ,7.19,12,4,0,0,0,0,0,6,0,0,,18,
"2,2',3,4,5,5',6-heptachlorobiphenyl",C12H3Cl7,052712-05-7,Clc1ccc(Cl)c(c1)c2c(Cl)c(Cl)c(Cl)c(Cl)c2Cl,biobyte (1995) ,7.93,12,3,0,0,0,0,0,7,0,0,,19,
"2,2',3,3',5,6'-hexachlorobiphenyl",C12H4Cl6,052744-13-5,Clc1cc(Cl)c(Cl)c(c1)c2c(Cl)ccc(Cl)c2Cl,"hansch,c & leo,aj (1985) ",7.15,12,4,0,0,0,0,0,6,0,0,,18,
"phenol, 4-tridecyl-",C19H32O1,052780-43-5,CCCCCCCCCCCCCc1ccc(O)cc1,sangster (1993) ,8.2,19,32,0,1,0,0,0,0,0,0,,20,
"14-benzdiazpn-2-on,1(23diohpr)5(2fph)7cl",C18H16Cl1F1N2O3,052829-30-8,OCC(O)CN1c3c(cc(Cl)cc3)C(c2c(F)cccc2)=NCC1(=O),"hansch,c & leo,aj (1985) ",1.51,18,16,2,3,0,0,1,1,0,0,,25,
"5-butyl-1,3,4-oxadiazol-2-amine",C6H11N3O1,052838-38-7,CCCCc1oc(N)nn1,"hansch,c & leo,aj (1985) ",0.65,6,11,3,1,0,0,0,0,0,0,,10,
52838-39-8,C3H5N3O1,052838-39-8,Cc1oc(N)nn1,"hansch,c & leo,aj (1985) ",-0.92,3,5,3,1,0,0,0,0,0,0,,7,
1-chloroamitriptyline,C20H22Cl1N1,052845-72-4,CN(C)CC/C=C/1c2ccccc2CCc3c(Cl)cccc13,"hansch,c & leo,aj (1985) ",5.55,20,22,1,0,0,0,0,1,0,0,,22,
s-(phenylmethyl) (dipropylamino)methanethioate,C14H21N1O1S1,052888-80-9,CCCN(CCC)C(=O)SCc1ccccc1,"tomlin,c (1994) ",4.65,14,21,1,1,1,0,0,0,0,0,,17,
"[cyano-[3-(phenoxy)phenyl]methyl] 3-(2,2-dibromoethenyl)-2,2-dimethylcyclopropane-1-carboxylate",C22H19Br2N1O3,052918-63-5,CC1(C)C(C=C(Br)Br)C1C(=O)OC(C#N)c2cccc(Oc3ccccc3)c2,"hansch,c et al. (1995) ",6.2,22,19,1,3,0,0,0,0,2,0,,28,
"(1,3-dioxo-4,5,6,7-tetrahydroisoindol-2-yl)methyl acetate",C11H13N1O4,052945-16-1,CC(=O)OCN1C(=O)C2=C(CCCC2)C1=O,biobyte (1995) ,1.15,11,13,1,4,0,0,0,0,0,0,,16,
"benzamide, n,n-dimethyl-2-[[(4-methylphenyl)sulf",C16H17N1O4S1,052980-49-1,Cc1ccc(S(=O)(=O)Oc2c(C(=O)N(C)C)cccc2)cc1,pomona (1987) ,2.01,16,17,1,4,1,0,0,0,0,0,,22,
6-methoxyisoquinoline,C10H9N1O1,052986-70-6,COc1ccc2cnccc2c1,"hansch,c et al. (1995) ",2.22,10,9,1,1,0,0,0,0,0,0,,12,