Names,Formula,CAS No,SMILES,Reference,Exp logp,C,H,N,O,S,P,F,Cl,Br,I,,,
pteridine,C6H4N4,000091-18-9,c1cnc2ncncc2n1,"hansch,c et al. (1995) ",-0.58,6,4,4,0,0,0,0,0,0,0,,10,
quinoxaline,C8H6N2,000091-19-0,c1ccc2nccnc2c1,"hansch,c et al. (1995) ",1.32,8,6,2,0,0,0,0,0,0,0,,10,
naphthalene,C10H8,000091-20-3,c1ccc2ccccc2c1,"hansch,c et al. (1995) ",3.3,10,8,0,0,0,0,0,0,0,0,,10,
quinoline,C9H7N1,000091-22-5,c1ccc2ncccc2c1,"hansch,c et al. (1995) ",2.03,9,7,1,0,0,0,0,0,0,0,,10,
1-methoxy-2-nitrobenzene,C7H7N1O3,000091-23-6,COc1ccccc1[N+]([O-])=O,"hansch,c et al. (1995) ",1.73,7,7,1,3,0,0,0,0,0,0,,11,
benzthiazide,C15H14Cl1N3O4S3,000091-33-8,N[S](=O)(=O)c1cc2c(NC(=N[S]2(=O)=O)CSCc3ccccc3)cc1Cl,"berthod,a et al. (1999) ",1.73,15,14,3,4,3,0,0,1,0,0,,26,
2-(phenylamino)benzoic acid,C13H11N1O2,000091-40-7,OC(=O)c1ccccc1Nc2ccccc2,"hansch,c et al. (1995) ",4.36,13,11,1,2,0,0,0,0,0,0,,16,
"n,n-dimethyl-2-(5-methyl-2-propan-2-ylphenoxy)ethanamine",C14H23N1O1,000091-46-3,CC(C)c1ccc(C)cc1OCCN(C)C,"dallet,p et al. (1985) ",3.79,14,23,1,1,0,0,0,0,0,0,,16,
"2,3-dimethyl-1h-indole",C10H11N1,000091-55-4,Cc1[nH]c2ccccc2c1C,sangster (1993) ,3.05,10,11,1,0,0,0,0,0,0,0,,11,
"1h-indole-2,3-dione",C8H5N1O2,000091-56-5,O=C1Nc2ccccc2C1=O,"hansch,c et al. (1995) ",0.83,8,5,1,2,0,0,0,0,0,0,,11,
2-methylnaphthalene,C11H10,000091-57-6,Cc1ccc2ccccc2c1,"hansch,c et al. (1995) ",3.86,11,10,0,0,0,0,0,0,0,0,,11,
2-chloronaphthalene,C10H7Cl1,000091-58-7,Clc1ccc2ccccc2c1,"lei,yd et al. (2000) ",3.9,10,7,0,0,0,0,0,1,0,0,,11,
naphthalen-2-amine,C10H9N1,000091-59-8,Nc1ccc2ccccc2c1,"hansch,c et al. (1995) ",2.28,10,9,1,0,0,0,0,0,0,0,,11,
6-methylquinoline,C10H9N1,000612-60-2,Cc1ccc2ncccc2c1,"hansch,c et al. (1995) ",2.47,10,9,1,0,0,0,0,0,0,0,,11,
2-methylquinoline,C10H9N1,000091-63-4,Cc1ccc2ccccc2n1,"hansch,c et al. (1995) ",2.59,10,9,1,0,0,0,0,0,0,0,,11,
chromen-2-one,C9H6O2,000091-64-5,O=C1Oc2ccccc2C=C1,"hansch,c et al. (1995) ",1.39,9,6,0,2,0,0,0,0,0,0,,11,
"n,n-diethylaniline",C10H15N1,000091-66-7,CCN(CC)c1ccccc1,"hansch,c et al. (1995) ",3.31,10,15,1,0,0,0,0,0,0,0,,11,
"6-phenyl-1,3,5-triazine-2,4-diamine",C9H9N5,000091-76-9,Nc1nc(N)nc(n1)c2ccccc2,"hansch,c et al. (1995) ",1.36,9,9,5,0,0,0,0,0,0,0,,14,
"n',n'-dimethyl-n-pyridin-2-yl-n-(thiophen-2-ylmethyl)ethane-1,2-diamine",C14H19N3S1,000091-80-5,CN(C)CCN(Cc1sccc1)c2ccccn2,sangster (1994) ,2.87,14,19,3,0,1,0,0,0,0,0,,18,
"n-[(4-methoxyphenyl)methyl]-n',n'-dimethyl-n-pyridin-2-ylethane-1,2-diamine",C17H23N3O1,000091-84-9,COc1ccc(CN(CCN(C)C)c2ccccn2)cc1,"hansch,c et al. (1995) ",3.27,17,23,3,1,0,0,0,0,0,0,,21,
"3,3'-dichlorobenzidine",C12H10Cl2N2,000091-94-1,Nc1ccc(cc1Cl)c2ccc(N)c(Cl)c2,"hansch,c et al. (1995) ",3.51,12,10,2,0,0,0,0,2,0,0,,16,
n-[2-methyl-4-[3-methyl-4-(3-oxobutanoylamino)phenyl]phenyl]-3-oxobutanamide,C22H24N2O4,000091-96-3,CC(=O)CC(=O)Nc1ccc(cc1C)c2ccc(NC(=O)CC(C)=O)c(C)c2,chemicals inspection and testing institu (1992) ,1.75,22,24,2,4,0,0,0,0,0,0,,28,
3-ethyl-4-[(3-methylimidazol-4-yl)methyl]oxolan-2-one,C11H16N2O2,000092-13-7,CCC1C(COC1=O)Cc2cncn2C,sangster (1993) ,0.12,11,16,2,2,0,0,0,0,0,0,,15,
tetracene,C18H12,000092-24-0,c1ccc2cc3cc4ccccc4cc3cc2c1,sangster (1993) ,5.76,18,12,0,0,0,0,0,0,0,0,,18,
1-phenylpyrazolidin-3-one,C9H10N2O1,000092-43-3,O=C1CCN(N1)c2ccccc2,"hansch,c et al. (1995) ",0.89,9,10,2,1,0,0,0,0,0,0,,12,
"naphthalene-2,3-diol",C10H8O2,000092-44-4,Oc1cc2ccccc2cc1O,sangster (1993) ,2.24,10,8,0,2,0,0,0,0,0,0,,12,
2-(ethyl-phenylamino)ethanol,C10H15N1O1,000092-50-2,CCN(CCO)c1ccccc1,"hansch,c et al. (1995) ",2.1,10,15,1,1,0,0,0,0,0,0,,12,
phenylbenzene,C12H10,000092-52-4,c1ccc(cc1)c2ccccc2,"hansch,c et al. (1995) ",4.01,12,10,0,0,0,0,0,0,0,0,,12,
4-phenylmorpholine,C10H13N1O1,000092-53-5,C1CN(CCO1)c2ccccc2,"hansch,c et al. (1995) ",1.36,10,13,1,1,0,0,0,0,0,0,,12,
1-phenylpiperazine,C10H14N2,000092-54-6,C1CN(CCN1)c2ccccc2,"caccia,s et al. (1985) ",1.1,10,14,2,0,0,0,0,0,0,0,,12,
[acetyloxy-(5-nitrofuran-2-yl)methyl] acetate,C9H9N1O7,000092-55-7,CC(=O)OC(OC(C)=O)c1oc(cc1)[N+]([O-])=O,"hansch,c et al. (1995) ",1.06,9,9,1,7,0,0,0,0,0,0,,17,
"acridine-3,6-diamine",C13H11N3,000092-62-6,Nc1ccc2cc3ccc(N)cc3nc2c1,"hansch,c et al. (1995) ",1.83,13,11,3,0,0,0,0,0,0,0,,16,
1-bromo-4-phenylbenzene,C12H9Br1,000092-66-0,Brc1ccc(cc1)c2ccccc2,"doucette,wj & andren,aw (1987) ",4.96,12,9,0,0,0,0,0,0,1,0,,13,
4-phenylaniline,C12H11N1,000092-67-1,Nc1ccc(cc1)c2ccccc2,"martin-villodre,a et al. (1986) ",2.86,12,11,1,0,0,0,0,0,0,0,,13,
4-phenylphenol,C12H10O1,000092-69-3,Oc1ccc(cc1)c2ccccc2,"hansch,c et al. (1995) ",3.2,12,10,0,1,0,0,0,0,0,0,,13,
3-hydroxynaphthalene-2-carboxylic acid,C11H8O3,000092-70-6,OC(=O)c1cc2ccccc2cc1O,sangster (1993) ,3.05,11,8,0,3,0,0,0,0,0,0,,14,
"2,5-di(phenyl)-1,3-oxazole",C15H11N1O1,000092-71-7,o1c(cnc1c2ccccc2)c3ccccc3,"hansch,c et al. (1995) ",4.67,15,11,1,1,0,0,0,0,0,0,,17,
phenazine,C12H8N2,000092-82-0,c1ccc2nc3ccccc3nc2c1,"hansch,c et al. (1995) ",2.84,12,8,2,0,0,0,0,0,0,0,,14,
9h-xanthene,C13H10O1,000092-83-1,C1c2ccccc2Oc3ccccc13,"de voogt,p et al. (1990) ",4.23,13,10,0,1,0,0,0,0,0,0,,14,
10h-phenothiazine,C12H9N1S1,000092-84-2,N1c2ccccc2Sc3ccccc13,"hansch,c et al. (1995) ",4.15,12,9,1,0,1,0,0,0,0,0,,14,
thianthrene,C12H8S2,000092-85-3,S1c2ccccc2Sc3ccccc13,"de voogt,p et al. (1990) ",4.47,12,8,0,0,2,0,0,0,0,0,,14,
1-bromo-4-(4-bromophenyl)benzene,C12H8Br2,000092-86-4,Brc1ccc(cc1)c2ccc(Br)cc2,"hansch,c et al. (1995) ",5.72,12,8,0,0,0,0,0,0,2,0,,14,
4-(4-aminophenyl)aniline,C12H12N2,000092-87-5,Nc1ccc(cc1)c2ccc(N)cc2,"hansch,c et al. (1995) ",1.34,12,12,2,0,0,0,0,0,0,0,,14,
4-phenylbenzoic acid,C13H10O2,000092-92-2,OC(=O)c1ccc(cc1)c2ccccc2,"miyake,k et al. (1986) ",3.75,13,10,0,2,0,0,0,0,0,0,,15,
1-nitro-4-phenylbenzene,C12H9N1O2,000092-93-3,[O-][N+](=O)c1ccc(cc1)c2ccccc2,"hansch,c et al. (1995) ",3.82,12,9,1,2,0,0,0,0,0,0,,15,
"1,4-di(phenyl)benzene",C18H14,000092-94-4,c1ccc(cc1)c2ccc(cc2)c3ccccc3,sangster (1993) ,6.03,18,14,0,0,0,0,0,0,0,0,,18,
"2,5-dimethoxybenzaldehyde",C9H10O3,000093-02-7,COc1ccc(OC)c(C=O)c1,"jin,lj et al. (1998) ",1.91,9,10,0,3,0,0,0,0,0,0,,12,
2-methoxynaphthalene,C11H10O1,000093-04-9,COc1ccc2ccccc2c1,"hansch,c et al. (1995) ",3.47,11,10,0,1,0,0,0,0,0,0,,12,
"3,4-dimethoxybenzoic acid",C9H10O4,000093-07-2,COc1ccc(cc1OC)C(O)=O,"hansch,c et al. (1995) ",1.61,9,10,0,4,0,0,0,0,0,0,,13,
naphthalene-2-carboxylic acid,C11H8O2,000093-09-4,OC(=O)c1ccc2ccccc2c1,"hansch,c et al. (1995) ",3.28,11,8,0,2,0,0,0,0,0,0,,13,
"3-(2-methoxyphenoxy)propane-1,2-diol",C10H14O4,000093-14-1,COc1ccccc1OCC(O)CO,"smith,jt & vinjamoori,dt (1995) ",1.39,10,14,0,4,0,0,0,0,0,0,,14,
n-(2-methoxyphenyl)acetamide,C9H11N1O2,000093-26-5,COc1ccccc1NC(C)=O,"hansch,c et al. (1995) ",0.67,9,11,1,2,0,0,0,0,0,0,,12,
1-phenylpropan-1-one,C9H10O1,000093-55-0,CCC(=O)c1ccccc1,"hansch,c et al. (1995) ",2.19,9,10,0,1,0,0,0,0,0,0,,10,
methyl benzoate,C8H8O2,000093-58-3,COC(=O)c1ccccc1,"hansch,c et al. (1995) ",2.12,8,8,0,2,0,0,0,0,0,0,,10,
methyl pyridine-3-carboxylate,C7H7N1O2,000093-60-7,COC(=O)c1cccnc1,"hansch,c et al. (1995) ",0.83,7,7,1,2,0,0,0,0,0,0,,10,
n-methyl-n-phenylformamide,C8H9N1O1,000093-61-8,CN(C=O)c1ccccc1,"hansch,c et al. (1995) ",1.09,8,9,1,1,0,0,0,0,0,0,,10,
mcpp,C10H11Cl1O3,007085-19-0,CC(Oc1ccc(Cl)cc1C)C(O)=O,"tomlin,c (1997) ",3.2,10,11,0,3,0,0,0,1,0,0,,14,
silvex,C9H7Cl3O3,000093-72-1,CC(Oc1cc(Cl)c(Cl)cc1Cl)C(O)=O,"hansch,c et al. (1995) ",3.8,9,7,0,3,0,0,0,3,0,0,,15,
"2,4,5-trichlorophenoxyacetic acid",C8H5Cl3O3,000093-76-5,OC(=O)COc1cc(Cl)c(Cl)cc1Cl,"hansch,c et al. (1995) ",3.31,8,5,0,3,0,0,0,3,0,0,,14,
"2,4,5-t, n-butyl ester",C12H13Cl3O3,000093-79-8,CCCCOC(=O)COc1cc(Cl)c(Cl)cc1Cl,sangster (1993) ,4.81,12,13,0,3,0,0,0,3,0,0,,18,
ethyl benzoate,C9H10O2,000093-89-0,CCOC(=O)c1ccccc1,"hansch,c et al. (1995) ",2.64,9,10,0,2,0,0,0,0,0,0,,11,
benzoyl benzoate,C14H10O3,000093-97-0,O=C(OC(=O)c1ccccc1)c2ccccc2,"hansch,c et al. (1995) ",2.26,14,10,0,3,0,0,0,0,0,0,,17,
n-phenylbenzamide,C13H11N1O1,000093-98-1,O=C(Nc1ccccc1)c2ccccc2,"hansch,c et al. (1995) ",2.62,13,11,1,1,0,0,0,0,0,0,,15,
phenyl benzoate,C13H10O2,000093-99-2,O=C(Oc1ccccc1)c2ccccc2,"hansch,c et al. (1995) ",3.59,13,10,0,2,0,0,0,0,0,0,,15,
ethyl 3-oxo-3-phenylpropanoate,C11H12O3,000094-02-0,CCOC(=O)CC(=O)c1ccccc1,"hansch,c et al. (1995) ",1.87,11,12,0,3,0,0,0,0,0,0,,14,
4-(1-hydroxy-2-methylaminoethyl)phenol,C9H13N1O2,000094-07-5,CNCC(O)c1ccc(O)cc1,"hansch,c et al. (1995) ",-0.45,9,13,1,2,0,0,0,0,0,0,,12,
ethyl 4-aminobenzoate,C9H11N1O2,000094-09-7,CCOC(=O)c1ccc(N)cc1,"hansch,c et al. (1995) ",1.86,9,11,1,2,0,0,0,0,0,0,,12,
propyl 4-aminobenzoate,C10H13N1O2,000094-12-2,CCCOC(=O)c1ccc(N)cc1,"hansch,c et al. (1995) ",2.43,10,13,1,2,0,0,0,0,0,0,,13,
propyl 4-hydroxybenzoate,C10H12O3,000094-13-3,CCCOC(=O)c1ccc(O)cc1,"hansch,c et al. (1995) ",3.04,10,12,0,3,0,0,0,0,0,0,,13,
phenylmethyl 4-hydroxybenzoate,C14H12O3,000094-18-8,Oc1ccc(cc1)C(=O)OCc2ccccc2,"lehner,sj et al. (1993) ",3.56,14,12,0,3,0,0,0,0,0,0,,17,
"4-amino-n-(5-ethyl-1,3,4-thiadiazol-2-yl)benzenesulfonamide",C10H12N4O2S2,000094-19-9,CCc1sc(N[S](=O)(=O)c2ccc(N)cc2)nn1,"hansch,c et al. (1995) ",1.01,10,12,4,2,2,0,0,0,0,0,,18,
chlorpropamide,C10H13Cl1N2O3S1,000094-20-2,CCCNC(=O)N[S](=O)(=O)c1ccc(Cl)cc1,"hansch,c et al. (1995) ",2.27,10,13,2,3,1,0,0,1,0,0,,17,
2-dimethylaminoethyl 4-butylaminobenzoate,C15H24N2O2,000094-24-6,CCCCNc1ccc(cc1)C(=O)OCCN(C)C,"avdeef,a (1997) ",3.51,15,24,2,2,0,0,0,0,0,0,,19,
butyl 4-aminobenzoate,C11H15N1O2,000094-25-7,CCCCOC(=O)c1ccc(N)cc1,"hansch,c et al. (1995) ",2.87,11,15,1,2,0,0,0,0,0,0,,14,
butyl 4-hydroxybenzoate,C11H14O3,000094-26-8,CCCCOC(=O)c1ccc(O)cc1,"hansch,c et al. (1995) ",3.57,11,14,0,3,0,0,0,0,0,0,,14,
2-hydroxyethyl benzoate,C9H10O3,000094-33-7,OCCOC(=O)c1ccccc1,"leahy,de et al. (1989) ",1.12,9,10,0,3,0,0,0,0,0,0,,12,
benzoyl benzenecarboperoxoate,C14H10O4,000094-36-0,O=C(OOC(=O)c1ccccc1)c2ccccc2,sangster (1993) ,3.46,14,10,0,4,0,0,0,0,0,0,,18,
benzalacetophenone,C15H12O1,000094-41-7,O=C(C=Cc1ccccc1)c2ccccc2,"hansch,c et al. (1995) ",3.08,15,12,0,1,0,0,0,0,0,0,,16,
phenylmethyl pyridine-3-carboxylate,C13H11N1O2,000094-44-0,O=C(OCc1ccccc1)c2cccnc2,"guy,rh et al. (1986) ",2.4,13,11,1,2,0,0,0,0,0,0,,16,
3-methylbutyl benzoate,C12H16O2,000094-46-2,CC(C)CCOC(=O)c1ccccc1,sangster (1993) ,4.15,12,16,0,2,0,0,0,0,0,0,,14,
2-phenylethyl benzoate,C15H14O2,000094-47-3,O=C(OCCc1ccccc1)c2ccccc2,"hansch,c et al. (1995) ",4.01,15,14,0,2,0,0,0,0,0,0,,17,
2-ethoxyphenol,C8H10O2,000094-71-3,CCOc1ccccc1O,"hansch,c et al. (1995) ",1.68,8,10,0,2,0,0,0,0,0,0,,10,
2-methyl-4-chlorophenoxyacetic acid,C9H9Cl1O3,000094-74-6,Cc1cc(Cl)ccc1OCC(O)=O,"ilchmann,a et al. (1993) ",3.25,9,9,0,3,0,0,0,1,0,0,,13,
"2,4-dichlorophenoxyacetic acid",C8H6Cl2O3,000094-75-7,OC(=O)COc1ccc(Cl)cc1Cl,"hansch,c et al. (1995) ",2.81,8,6,0,3,0,0,0,2,0,0,,13,
"2,4-db",C10H10Cl2O3,000094-82-6,OC(=O)CCCOc1ccc(Cl)cc1Cl,"hansch,c et al. (1995) ",3.53,10,10,0,3,0,0,0,2,0,0,,15,
"2,4-dichlorobenzylchloride",C7H5Cl3,000094-99-5,ClCc1ccc(Cl)cc1Cl,"hansch,c et al. (1995) ",3.82,7,5,0,0,0,0,0,3,0,0,,10,
1h-indene,C9H8,000095-13-6,C1C=Cc2ccccc12,"hansch,c et al. (1995) ",2.92,9,8,0,0,0,0,0,0,0,0,,9,
2h-benzotriazole,C6H5N3,000273-02-9,[nH]1nc2ccccc2n1,sangster (1993) ,1.44,6,5,3,0,0,0,0,0,0,0,,9,
1-benzothiophene,C8H6S1,000095-15-8,s1ccc2ccccc12,"hansch,c et al. (1995) ",3.12,8,6,0,0,1,0,0,0,0,0,,9,
"1,3-benzothiazole",C7H5N1S1,000095-16-9,s1cnc2ccccc12,"hansch,c et al. (1995) ",2.01,7,5,1,0,1,0,0,0,0,0,,9,
2-methyl-1h-indole,C9H9N1,000095-20-5,Cc1[nH]c2ccccc2c1,"hansch,c et al. (1995) ",2.53,9,9,1,0,0,0,0,0,0,0,,10,
"n-(1,3-benzothiazol-2-ylsulfanyl)-2-methylpropan-2-amine",C11H14N2S2,000095-31-8,CC(C)(C)NSc1sc2ccccc2n1,us epa (2004) ,4.67,11,14,2,0,2,0,0,0,0,0,,15,
"1,2-dimethylbenzene",C8H10,001330-20-7,Cc1ccccc1C,"hansch,c et al. (1995);avg ",3.16,8,10,0,0,0,0,0,0,0,0,,8,
2-methylphenol,C7H8O1,001319-77-3,Cc1ccccc1O,"hansch,c et al. (1995); average of isomers ",1.95,7,8,0,1,0,0,0,0,0,0,,8,
2-chlorotoluene,C7H7Cl1,000095-49-8,Cc1ccccc1Cl,"hansch,c et al. (1995) ",3.42,7,7,0,0,0,0,0,1,0,0,,8,
"1,2-dichlorobenzene",C6H4Cl2,000095-50-1,Clc1ccccc1Cl,"hansch,c et al. (1995) ",3.43,6,4,0,0,0,0,0,2,0,0,,8,
2-chloroaniline,C6H6Cl1N1,000095-51-2,Nc1ccccc1Cl,"hansch,c et al. (1995) ",1.9,6,6,1,0,0,0,0,1,0,0,,8,
2-methylaniline,C7H9N1,000095-53-4,Cc1ccccc1N,"hansch,c et al. (1995) ",1.32,7,9,1,0,0,0,0,0,0,0,,8,
"benzene-1,2-diamine",C6H8N2,000095-54-5,Nc1ccccc1N,"hansch,c et al. (1995) ",0.15,6,8,2,0,0,0,0,0,0,0,,8,
2-aminophenol,C6H7N1O1,000095-55-6,Nc1ccccc1O,"hansch,c et al. (1995) ",0.62,6,7,1,1,0,0,0,0,0,0,,8,
2-bromophenol,C6H5Br1O1,000095-56-7,Oc1ccccc1Br,"hansch,c et al. (1995) ",2.35,6,5,0,1,0,0,0,0,1,0,,8,
2-chlorophenol,C6H5Cl1O1,000095-57-8,Oc1ccccc1Cl,"hansch,c et al. (1995) ",2.15,6,5,0,1,0,0,0,1,0,0,,8,
2-phenylcyclopropan-1-amine,C9H11N1,069684-88-4,NC1CC1c2ccccc2,sangster (1993) ,1.49,9,11,1,0,0,0,0,0,0,0,,10,
"1,2,4-trimethylbenzene",C9H12,000095-63-6,Cc1ccc(C)c(C)c1,"hansch,c et al. (1995) ",3.63,9,12,0,0,0,0,0,0,0,0,,9,
"3,4-dimethylaniline",C8H11N1,000095-64-7,Cc1ccc(N)cc1C,"jayasinghe,ds et al. (1992) ",1.84,8,11,1,0,0,0,0,0,0,0,,9,
"3,4-dimethylphenol",C8H10O1,000095-65-8,Cc1ccc(O)cc1C,"hansch,c et al. (1995) ",2.23,8,10,0,1,0,0,0,0,0,0,,9,
"2,4-dimethylaniline",C8H11N1,000095-68-1,Cc1ccc(N)c(C)c1,"hansch,c et al. (1995) ",1.68,8,11,1,0,0,0,0,0,0,0,,9,
2-methylhydroquinone,C7H8O2,000095-71-6,Cc1cc(O)ccc1O,sangster (1994) ,0.91,7,8,0,2,0,0,0,0,0,0,,9,
"benzene, 2-chloro-1,4-dimethyl-",C8H9Cl1,000095-72-7,Cc1ccc(C)c(Cl)c1,biobyte (1995) ,3.86,8,9,0,0,0,0,0,1,0,0,,9,
"2,4-dichlorotoluene",C7H6Cl2,000095-73-8,Cc1ccc(Cl)cc1Cl,"hansch,c et al. (1995) ",4.24,7,6,0,0,0,0,0,2,0,0,,9,
"3,4-dichlorotoluene",C7H6Cl2,000095-75-0,Cc1ccc(Cl)c(Cl)c1,biobyte (1995) ,3.95,7,6,0,0,0,0,0,2,0,0,,9,
"3,4-dichloroaniline",C6H5Cl2N1,000095-76-1,Nc1ccc(Cl)c(Cl)c1,"hansch,c et al. (1995) ",2.69,6,5,1,0,0,0,0,2,0,0,,9,
"3,4-dichlorophenol",C6H4Cl2O1,000095-77-2,Oc1ccc(Cl)c(Cl)c1,"hansch,c et al. (1995) ",3.33,6,4,0,1,0,0,0,2,0,0,,9,
"2,5-dimethylaniline",C8H11N1,000095-78-3,Cc1ccc(C)c(N)c1,"debnath,ak et al. (1992) ",1.83,8,11,1,0,0,0,0,0,0,0,,9,
"4-methylbenzene-1,3-diamine",C7H10N2,000095-80-7,Cc1ccc(N)cc1N,"debnath,ak et al. (1992) ",0.14,7,10,2,0,0,0,0,0,0,0,,9,
"2,5-dichloroaniline",C6H5Cl2N1,000095-82-9,Nc1cc(Cl)ccc1Cl,sangster (1994) ,2.75,6,5,1,0,0,0,0,2,0,0,,9,
"4-chloro-1,2-benzenediamine",C6H7Cl1N2,000095-83-0,Nc1ccc(Cl)cc1N,"hansch,c et al. (1995) ",1.28,6,7,2,0,0,0,0,1,0,0,,9,
2-amino-4-methylphenol,C7H9N1O1,000095-84-1,Cc1ccc(O)c(N)c1,"debnath,ak et al. (1992) ",1.16,7,9,1,1,0,0,0,0,0,0,,9,
"phenol, 2-amino-4-chloro-",C6H6Cl1N1O1,000095-85-2,Nc1cc(Cl)ccc1O,"debnath,ak et al. (1992) ",1.81,6,6,1,1,0,0,0,1,0,0,,9,
"2,5-dimethylphenol",C8H10O1,000095-87-4,Cc1ccc(C)c(O)c1,"hansch,c et al. (1995) ",2.33,8,10,0,1,0,0,0,0,0,0,,9,
4-chlororesorcinol,C6H5Cl1O2,000095-88-5,Oc1ccc(Cl)c(O)c1,"hansch,c et al. (1995) ",1.8,6,5,0,2,0,0,0,1,0,0,,9,
"pyrazine, 3-chloro-2,5-dimethyl-",C6H7Cl1N2,000095-89-6,Cc1cnc(C)c(Cl)n1,"yamagami,c et al. (1991) ",1.5,6,7,2,0,0,0,0,1,0,0,,9,
diethyl oxalate,C6H10O4,000095-92-1,CCOC(=O)C(=O)OCC,"hansch,c et al. (1995) ",0.56,6,10,0,4,0,0,0,0,0,0,,10,
"1,2,4,5-tetramethylbenzene",C10H14,000095-93-2,Cc1cc(C)c(C)cc1C,"hansch,c et al. (1995) ",4,10,14,0,0,0,0,0,0,0,0,,10,
"1,2,4,5-tetrachlorobenzene",C6H2Cl4,000095-94-3,Clc1cc(Cl)c(Cl)cc1Cl,"hansch,c et al. (1995) ",4.64,6,2,0,0,0,0,0,4,0,0,,10,
"2,4,5-trichlorophenol",C6H3Cl3O1,000095-95-4,Oc1cc(Cl)c(Cl)cc1Cl,"hansch,c et al. (1995) ",3.72,6,3,0,1,0,0,0,3,0,0,,10,
2-phenyloxirane,C8H8O1,000096-09-3,C1OC1c2ccccc2,"hansch,c et al. (1995) ",1.61,8,8,0,1,0,0,0,0,0,0,,9,
"1,2-dibromo-3-chloropropane",C3H5Br2Cl1,000096-12-8,ClCC(Br)CBr,chemicals inspection and testing institu (1992) ,2.96,3,5,0,0,0,0,0,1,2,0,,6,
3-methylpentane,C6H14,000096-14-0,CCC(C)CC,sangster (1993) ,3.6,6,14,0,0,0,0,0,0,0,0,,6,
"1,2,3-trichloropropane",C3H5Cl3,000096-18-4,ClCC(Cl)CCl,chemicals inspection and testing institu (1992) ,2.27,3,5,0,0,0,0,0,3,0,0,,6,
pentan-3-one,C5H10O1,000096-22-0,CCC(=O)CC,"hansch,c et al. (1995) ",0.99,5,10,0,1,0,0,0,0,0,0,,6,
2-butanone oxime,C4H9N1O1,000096-29-7,CCC(C)=NO,chemicals inspection and testing institu (1992) ,0.63,4,9,1,1,0,0,0,0,0,0,,6,
"1,3-dimethylurea",C3H8N2O1,000096-31-1,CNC(=O)NC,"hansch,c et al. (1995) ",-0.49,3,8,2,1,0,0,0,0,0,0,,6,
methyl prop-2-enoate,C4H6O2,000096-33-3,COC(=O)C=C,"hansch,c et al. (1995) ",0.8,4,6,0,2,0,0,0,0,0,0,,6,
methylcyclopentane,C6H12,000096-37-7,CC1CCCC1,"hansch,c et al. (1995) ",3.37,6,12,0,0,0,0,0,0,0,0,,6,
2-chlorothiophene,C4H3Cl1S1,000096-43-5,Clc1sccc1,"hansch,c et al. (1995) ",2.54,4,3,0,0,1,0,0,1,0,0,,6,
imidazolidine-2-thione,C3H6N2S1,000096-45-7,S=C1NCCN1,"govers,h et al. (1986) ",-0.66,3,6,2,0,1,0,0,0,0,0,,6,
oxolan-2-one,C4H6O2,000096-48-0,O=C1CCCO1,"hansch,c et al. (1995) ",-0.64,4,6,0,2,0,0,0,0,0,0,,6,
"1,3-thiazol-2-amine",C3H4N2S1,000096-50-4,Nc1sccn1,"hansch,c et al. (1995) ",0.38,3,4,2,0,1,0,0,0,0,0,,6,
1-methylpyrrole,C5H7N1,000096-54-8,Cn1cccc1,"hansch,c et al. (1995) ",1.21,5,7,1,0,0,0,0,0,0,0,,6,
"3-(fluoro-methylphosphoryl)oxy-2,2-dimethylbutane",C7H16F1O2P1,000096-64-0,CC(O[P](C)(F)=O)C(C)(C)C,"benschop,hp & wesselman,hc (1989) ",1.78,7,16,0,2,0,1,1,0,0,0,,11,
"2,4-ditert-butylphenol",C14H22O1,000096-76-4,CC(C)(C)c1ccc(O)c(c1)C(C)(C)C,chemicals inspection and testing institu (1992) ,5.19,14,22,0,1,0,0,0,0,0,0,,15,
"n-(2,6-dimethylphenyl)-1-methylpiperidine-2-carboxamide",C15H22N2O1,000096-88-8,CN1CCCCC1C(=O)Nc2c(C)cccc2C,"hansch,c et al. (1995) ",1.95,15,22,2,1,0,0,0,0,0,0,,18,
"2-amino-4,6-dinitrophenol",C6H5N3O5,000096-91-3,Nc1cc(cc(c1O)[N+]([O-])=O)[N+]([O-])=O,"hansch,c et al. (1995) ",0.93,6,5,3,5,0,0,0,0,0,0,,14,
4-methoxy-2-nitroaniline,C7H8N2O3,000096-96-8,COc1ccc(N)c(c1)[N+]([O-])=O,chemicals inspection and testing institu (1992) ,1.94,7,8,2,3,0,0,0,0,0,0,,12,
2-hydroxy-5-nitrobenzoic acid,C7H5N1O5,000096-97-9,OC(=O)c1cc(ccc1O)[N+]([O-])=O,"hansch,c et al. (1995) ",2.34,7,5,1,5,0,0,0,0,0,0,,13,
"2,4-dinitrochlorobenzene",C6H3Cl1N2O4,000097-00-7,[O-][N+](=O)c1ccc(Cl)c(c1)[N+]([O-])=O,"debnath,ak et al. (1991) ",2.17,6,3,2,4,0,0,0,1,0,0,,13,
"benzenesulfonamide, 4-chloro-3-nitro-",C6H5Cl1N2O4S1,000097-09-6,N[S](=O)(=O)c1ccc(Cl)c(c1)[N+]([O-])=O,sangster (1994) ,0.66,6,5,2,4,1,0,0,1,0,0,,14,
dichlofenthion,C10H13Cl2O3P1S1,000097-17-6,CCO[P](=S)(OCC)Oc1ccc(Cl)cc1Cl,"hansch,c et al. (1995) ",5.14,10,13,0,3,1,1,0,2,0,0,,17,
"phenol,2,2'-methylenebis 4-chloro-",C13H10Cl2O2,000097-23-4,Oc1c(Cc2c(O)ccc(Cl)c2)cc(Cl)cc1,"hansch,c et al. (1995) ",4.26,13,10,0,2,0,0,0,2,0,0,,17,
4-(2-amino-1-hydroxyethyl)-2-methoxyphenol,C9H13N1O3,000097-31-4,COc1cc(ccc1O)C(O)CN,"hansch,c et al. (1995) ",-1.05,9,13,1,3,0,0,0,0,0,0,,13,
2-methoxy-4-prop-2-enylphenol,C10H12O2,000097-53-0,COc1cc(CC=C)ccc1O,sangster (1993) ,2.27,10,12,0,2,0,0,0,0,0,0,,12,
2-methoxy-4-(1-propenyl)phenol,C10H12O2,000097-54-1,COc1cc(C=CC)ccc1O,"griffin,s et al. (1999) ",3.04,10,12,0,2,0,0,0,0,0,0,,12,
2-methylpentanoic acid,C6H12O2,000097-61-0,CCCC(C)C(O)=O,"catz,p & friend,d (1989) ",1.8,6,12,0,2,0,0,0,0,0,0,,8,
ethyl 2-methylprop-2-enoate,C6H10O2,000097-63-2,CCOC(=O)C(C)=C,"hansch,c et al. (1995) ",1.94,6,10,0,2,0,0,0,0,0,0,,8,
diethylcarbamothioylsulfanyl diethylaminomethanedithioate,C10H20N2S4,000097-77-8,CCN(CC)C(=S)SSC(=S)N(CC)CC,"hansch,c et al. (1995) ",3.88,10,20,2,0,4,0,0,0,0,0,,16,
2-methylpropyl 2-methylprop-2-enoate,C8H14O2,000097-86-9,CC(C)COC(=O)C(C)=C,"hansch,c et al. (1995) ",2.66,8,14,0,2,0,0,0,0,0,0,,10,
butyl 2-methylprop-2-enoate,C8H14O2,000097-88-1,CCCCOC(=O)C(C)=C,"hansch,c et al. (1995) ",2.88,8,14,0,2,0,0,0,0,0,0,,10,
furan-2-ylmethanol,C5H6O2,000098-00-0,OCc1occc1,"hansch,c et al. (1995) ",0.28,5,6,0,2,0,0,0,0,0,0,,7,
furan-2-carbaldehyde,C5H4O2,000098-01-1,O=Cc1occc1,"hansch,c et al. (1995) ",0.41,5,4,0,2,0,0,0,0,0,0,,7,
thiophene-2-carbaldehyde,C5H4O1S1,000098-03-3,O=Cc1sccc1,"hansch,c et al. (1995) ",1.02,5,4,0,1,1,0,0,0,0,0,,7,
tert-butylbenzene,C10H14,000098-06-6,CC(C)(C)c1ccccc1,"hansch,c et al. (1995) ",4.11,10,14,0,0,0,0,0,0,0,0,,10,