Names,Formula,CAS No,SMILES,Reference,Exp logp,C,H,N,O,S,P,F,Cl,Br,I,,,
"2-methylcyclohexa-2,5-diene-1,4-dione",C7H6O2,000553-97-9,CC1=CC(=O)C=CC1=O,"hansch,c et al. (1995) ",0.72,7,6,0,2,0,0,0,0,0,0,,9,
"2,4-dichloroaniline",C6H5Cl2N1,000554-00-7,Nc1ccc(Cl)cc1Cl,sangster (1994) ,2.78,6,5,1,0,0,0,0,2,0,0,,9,
methyl propanoate,C4H8O2,000554-12-1,CCC(=O)OC,"catz,p & friend,d (1989) ",0.84,4,8,0,2,0,0,0,0,0,0,,6,
2-methylthiophene,C5H6S1,000554-14-3,Cc1sccc1,"hansch,c et al. (1995) ",2.33,5,6,0,0,1,0,0,0,0,0,,6,
"n-(3-methyl-5-sulfamoyl-1,3,4-thiadiazol-2-ylidene)acetamide",C5H8N4O3S2,000554-57-4,CN1N=C(SC1=NC(C)=O)[S](N)(=O)=O,"hansch,c et al. (1995) ",0.13,5,8,4,3,2,0,0,0,0,0,,14,
"4,7,7-trimethylbicyclo[4.1.0]hept-4-ene",C10H16,000554-61-0,CC1=CC2C(CC1)C2(C)C,"griffin,s et al. (1999) ",4.44,10,16,0,0,0,0,0,0,0,0,,10,
3-nitrophenol,C6H5N1O3,000554-84-7,Oc1cccc(c1)[N+]([O-])=O,"hansch,c et al. (1995) ",2,6,5,1,3,0,0,0,0,0,0,,10,
1-methoxy-3-nitrobenzene,C7H7N1O3,000555-03-3,COc1cccc(c1)[N+]([O-])=O,"hansch,c et al. (1995) ",2.16,7,7,1,3,0,0,0,0,0,0,,11,
4-nitrobenzaldehyde,C7H5N1O3,000555-16-8,[O-][N+](=O)c1ccc(C=O)cc1,"hansch,c et al. (1995) ",1.56,7,5,1,3,0,0,0,0,0,0,,11,
neburon,C12H16Cl2N2O1,000555-37-3,CCCCN(C)C(=O)Nc1ccc(Cl)c(Cl)c1,"liu,j & qian,c (1995) ",4.1,12,16,2,1,0,0,0,2,0,0,,17,
4-acetamidobenzoic acid,C9H9N1O3,000556-08-1,CC(=O)Nc1ccc(cc1)C(O)=O,"hansch,c et al. (1995) ",1.31,9,9,1,3,0,0,0,0,0,0,,13,
methyl 3-methylbutanoate,C6H12O2,000556-24-1,COC(=O)CC(C)C,"hansch,c et al. (1995) ",1.82,6,12,0,2,0,0,0,0,0,0,,8,
2-[[2-[(2-aminoacetyl)amino]acetyl]amino]acetic acid,C6H11N3O4,000556-33-2,NCC(=O)NCC(=O)NCC(O)=O,pomona (1987) ,-2.68,6,11,3,4,0,0,0,0,0,0,,13,
2-[(2-aminoacetyl)amino]acetic acid,C4H8N2O3,000556-50-3,NCC(=O)NCC(O)=O,"hansch,c et al. (1995) ",-2.92,4,8,2,3,0,0,0,0,0,0,,9,
oxiran-2-ylmethanol,C3H6O2,000556-52-5,OCC1CO1,"deneer,jw et al. (1988) ",-0.95,3,6,0,2,0,0,0,0,0,0,,5,
methylimino-sulfanylidenemethane,C2H3N1S1,000556-61-6,CN=C=S,pomona (1987) ,0.94,2,3,1,0,1,0,0,0,0,0,,4,
1-[2-(ethoxy-methylphosphoryl)sulfanylethylsulfanyl]ethane,C7H17O2P1S2,000556-75-2,CCO[P](C)(=O)SCCSCC,"hansch,c et al. (1995) ",1.48,7,17,0,2,2,1,0,0,0,0,,12,
1-methoxypropane,C4H10O1,000557-17-5,CCCOC,"hansch,c et al. (1995) ",1.21,4,10,0,1,0,0,0,0,0,0,,5,
"2,3-dihydroxypropyl butanoate",C7H14O4,000557-25-5,CCCC(=O)OCC(O)CO,"hansch,c et al. (1995) ",-0.17,7,14,0,4,0,0,0,0,0,0,,11,
2-chloropropene,C3H5Cl1,000557-98-2,CC(Cl)=C,"hansch,c et al. (1995) ",2,3,5,0,0,0,0,0,1,0,0,,4,
tetrabromomethane,C1Br4,000558-13-4,BrC(Br)(Br)Br,"hansch,c et al. (1995) ",3.42,1,0,0,0,0,0,0,0,4,0,,5,
methanesulfonyl fluoride,C1H3F1O2S1,000558-25-8,C[S](F)(=O)=O,pomona (1987) ,0.55,1,3,0,2,1,0,1,0,0,0,,5,
heroin,C21H24N1O5,000561-27-3,CN1CC[C@]23[C@H]4Oc5c(OC(C)=O)ccc(C[C@@H]1[C@@H]2C=C[C@@H]4OC(C)=O)c35,"avdeef,a et al. (1996) ",1.58,21,24,1,5,0,0,0,0,0,0,,27,
"5-(2-bromoprop-2-enyl)-5-prop-2-enyl-1,3-diazinane-2,4,6-trione",C10H11Br1N2O3,000561-86-4,BrC(=C)CC1(CC=C)C(=O)NC(=O)NC1=O,"hansch,c et al. (1995) ",1.37,10,11,2,3,0,0,0,0,1,0,,16,
ethyl 1-(3-hydroxy-3-phenylpropyl)-4-phenylpiperidine-4-carboxylate,C23H29N1O3,000562-26-5,CCOC(=O)C1(CCN(CCC(O)c2ccccc2)CC1)c3ccccc3,sangster (1994) ,4.04,23,29,1,3,0,0,0,0,0,0,,27,
4-methyl-1-propan-2-ylcyclohex-3-en-1-ol,C10H18O1,000562-74-3,CC(C)C1(O)CCC(=CC1)C,"griffin,s et al. (1999) ",3.26,10,18,0,1,0,0,0,0,0,0,,11,
diethoxyphosphinothioylsulfanylmethylsulfanyl-diethoxy-sulfanylidenephosphorane,C9H22O4P2S4,000563-12-2,CCO[P](=S)(OCC)SCS[P](=S)(OCC)OCC,"hansch,c et al. (1995) ",5.07,9,22,0,4,4,2,0,0,0,0,,19,
3-methylbutan-2-one,C5H10O1,000563-80-4,CC(C)C(C)=O,"hansch,c et al. (1995) ",0.84,5,10,0,1,0,0,0,0,0,0,,6,
2-(oxiran-2-yl)oxirane,C4H6O2,001464-53-5,C1OC1C2CO2,"deneer,jw et al. (1988) ",-0.28,4,6,0,2,0,0,0,0,0,0,,6,
"2,4-dimethylpentan-3-one",C7H14O1,000565-80-0,CC(C)C(=O)C(C)C,"hansch,c et al. (1995) ",1.86,7,14,0,1,0,0,0,0,0,0,,8,
"1,8-dimethylnaphthalene",C12H12,000571-61-9,Cc1cccc2cccc(C)c12,"hansch,c et al. (1995) ",4.38,12,12,0,0,0,0,0,0,0,0,,12,
"1,4-dimethylnaphthalene",C12H12,000571-58-4,Cc1ccc(C)c2ccccc12,"hansch,c et al. (1995) ",4.37,12,12,0,0,0,0,0,0,0,0,,12,
571-60-8,C10H8O2,000571-60-8,Oc1ccc(O)c2ccccc12,sangster (1993) ,1.9,10,8,0,2,0,0,0,0,0,0,,12,
"1,5-dimethylnaphthalene",C12H12,000571-61-9,Cc1cccc2c(C)cccc12,"hansch,c et al. (1995) ",4.38,12,12,0,0,0,0,0,0,0,0,,12,
"1,2-dimethylnaphthalene",C12H12,000573-98-8,Cc1ccc2ccccc2c1C,"hansch,c et al. (1995) ",4.31,12,12,0,0,0,0,0,0,0,0,,12,
n-[di(phenyl)methylidene]hydroxylamine,C13H11N1O1,000574-66-3,ON=C(c1ccccc1)c2ccccc2,pomona (1987) ,3.2,13,11,1,1,0,0,0,0,0,0,,15,
"1,7-dimethylnaphthalene",C12H12,000575-37-1,Cc1ccc2cccc(C)c2c1,"hansch,c et al. (1995) ",4.44,12,12,0,0,0,0,0,0,0,0,,12,
"naphthalene-1,7-diol",C10H8O2,000575-38-2,Oc1ccc2cccc(O)c2c1,"hansch,c et al. (1995) ",1.94,10,8,0,2,0,0,0,0,0,0,,12,
"1,3-dimethylnaphthalene",C12H12,000575-41-7,Cc1cc(C)c2ccccc2c1,"hansch,c et al. (1995) ",4.42,12,12,0,0,0,0,0,0,0,0,,12,
"2,3-dichlorophenol",C6H4Cl2O1,000576-24-9,Oc1cccc(Cl)c1Cl,"hansch,c et al. (1995) ",2.84,6,4,0,1,0,0,0,2,0,0,,9,
"2,6-dimethylphenol",C8H10O1,000576-26-1,Cc1cccc(C)c1O,"hansch,c et al. (1995) ",2.36,8,10,0,1,0,0,0,0,0,0,,9,
1-bromo-2-nitrobenzene,C6H4Br1N1O2,000577-19-5,[O-][N+](=O)c1ccccc1Br,"hansch,c et al. (1995) ",2.52,6,4,1,2,0,0,0,0,1,0,,10,
2-acetylbenzoic acid,C9H8O3,000577-56-0,CC(=O)c1ccccc1C(O)=O,"hansch,c et al. (1995) ",0.81,9,8,0,3,0,0,0,0,0,0,,12,
1-(2-nitrophenyl)ethanone,C8H7N1O3,000577-59-3,CC(=O)c1ccccc1[N+]([O-])=O,"hansch,c et al. (1995) ",1.28,8,7,1,3,0,0,0,0,0,0,,12,
2-ethylaniline,C8H11N1,000578-54-1,CCc1ccccc1N,"hansch,c et al. (1995) ",1.74,8,11,1,0,0,0,0,0,0,0,,9,
1-bromo-2-methoxybenzene,C7H7Br1O1,000578-57-4,COc1ccccc1Br,"nakagawa,y et al. (1992) ",2.86,7,7,0,1,0,0,0,0,1,0,,9,
1-methoxy-2-methylbenzene,C8H10O1,000578-58-5,COc1ccccc1C,"hansch,c et al. (1995) ",2.74,8,10,0,1,0,0,0,0,0,0,,9,
quinolin-8-amine,C9H8N2,000611-34-7,Nc1cccc2cccnc12,"hansch,c et al. (1995) ",1.16,9,8,2,0,0,0,0,0,0,0,,11,
5-quinolinol,C9H7N1O1,000578-67-6,Oc1cccc2ncccc12,"austin,rp et al. (1995) ",1.85,9,7,1,1,0,0,0,0,0,0,,11,
quinolin-4-amine,C9H8N2,000578-68-7,Nc1ccnc2ccccc12,"hansch,c et al. (1995) ",1.63,9,8,2,0,0,0,0,0,0,0,,11,
"pyrido[2,1-b]quinazolin-11-one",C12H8N2O1,000578-96-1,O=C1N2C=CC=CC2=Nc3ccccc13,sangster (1994) ,2.08,12,8,2,1,0,0,0,0,0,0,,15,
n-methyl-n-phenylacetamide,C9H11N1O1,000579-10-2,CN(C(C)=O)c1ccccc1,"hansch,c et al. (1995) ",1.12,9,11,1,1,0,0,0,0,0,0,,11,
diloxanide,C9H9Cl2N1O2,000579-38-4,CN(C(=O)C(Cl)Cl)c1ccc(O)cc1,"dutta,h et al. (1988) ",1.78,9,9,1,2,0,0,0,2,0,0,,14,
"1,2-di(phenyl)ethane-1,2-diol",C14H14O2,000655-48-1,OC(C(O)c1ccccc1)c2ccccc2,sangster (1994) ,1.91,14,14,0,2,0,0,0,0,0,0,,16,
n-phenylbenzohydrazide,C13H12N2O1,000579-45-3,NN(c1ccccc1)C(=O)c2ccccc2,"britto,mm et al. (1999) ",2.3,13,12,2,1,0,0,0,0,0,0,,16,
n-(4-hydroxyphenyl)-n-methylacetamide,C9H11N1O2,000579-58-8,CN(C(C)=O)c1ccc(O)cc1,"hansch,c et al. (1995) ",0.61,9,11,1,2,0,0,0,0,0,0,,12,
1-(2-methoxyphenyl)ethanone,C9H10O2,000579-74-8,COc1ccccc1C(C)=O,"hansch,c et al. (1995) ",1.82,9,10,0,2,0,0,0,0,0,0,,11,
2-methoxybenzoic acid,C8H8O3,000579-75-9,COc1ccccc1C(O)=O,"hansch,c et al. (1995) ",1.59,8,8,0,3,0,0,0,0,0,0,,11,
2-(benzoylamino)benzoic acid,C14H11N1O3,000579-93-1,OC(=O)c1ccccc1NC(=O)c2ccccc2,biobyte starlist (2009) ,3.54,14,11,1,3,0,0,0,0,0,0,,18,
methyl 2-acetyloxybenzoate,C10H10O4,000580-02-9,COC(=O)c1ccccc1OC(C)=O,"hansch,c et al. (1995) ",1.46,10,10,0,4,0,0,0,0,0,0,,14,
quinolin-6-amine,C9H8N2,000580-15-4,Nc1ccc2ncccc2c1,"hansch,c et al. (1995) ",1.28,9,8,2,0,0,0,0,0,0,0,,11,
quinolin-6-ol,C9H7N1O1,000580-20-1,Oc1ccc2ncccc2c1,"hansch,c et al. (1995) ",1.98,9,7,1,1,0,0,0,0,0,0,,11,
quinolin-3-amine,C9H8N2,000580-17-6,Nc1cnc2ccccc2c1,"hansch,c et al. (1995) ",1.63,9,8,2,0,0,0,0,0,0,0,,11,
quinolin-3-ol,C9H7N1O1,000580-18-7,Oc1cnc2ccccc2c1,"hansch,c et al. (1995) ",2.08,9,7,1,1,0,0,0,0,0,0,,11,
7-quinolinol,C9H7N1O1,000580-20-1,Oc1ccc2cccnc2c1,"hansch,c et al. (1995) ",1.98,9,7,1,1,0,0,0,0,0,0,,11,
quinolin-2-amine,C9H8N2,000580-22-3,Nc1ccc2ccccc2n1,"hansch,c et al. (1995) ",1.87,9,8,2,0,0,0,0,0,0,0,,11,
3-phenylphenol,C12H10O1,000580-51-8,Oc1cccc(c1)c2ccccc2,"hansch,c et al. (1995) ",3.23,12,10,0,1,0,0,0,0,0,0,,13,
n-(2-ethoxyphenyl)acetamide,C10H13N1O2,000581-08-8,CCOc1ccccc1NC(C)=O,pomona (1987) ,1.49,10,13,1,2,0,0,0,0,0,0,,13,
"2,3-dimethylnaphthalene",C12H12,000581-40-8,Cc1cc2ccccc2cc1C,"hansch,c et al. (1995) ",4.4,12,12,0,0,0,0,0,0,0,0,,12,
"2,6-dimethylnaphthalene",C12H12,000581-42-0,Cc1ccc2cc(C)ccc2c1,"hansch,c et al. (1995) ",4.31,12,12,0,0,0,0,0,0,0,0,,12,
"naphthalene-2,6-diol",C10H8O2,000581-43-1,Oc1ccc2cc(O)ccc2c1,sangster (1993) ,1.9,10,8,0,2,0,0,0,0,0,0,,12,
2-pyridin-4-ylpyridine,C10H8N2,000581-47-5,c1ccc(nc1)c2ccncc2,"hansch,c et al. (1995) ",1.58,10,8,2,0,0,0,0,0,0,0,,12,
2-pyridin-3-ylpyridine,C10H8N2,000581-50-0,c1ccc(nc1)c2cccnc2,"hansch,c et al. (1995) ",1.46,10,8,2,0,0,0,0,0,0,0,,12,
(acetyloxy-phenylmethyl) acetate,C11H12O4,000581-55-5,CC(=O)OC(OC(C)=O)c1ccccc1,"hansch,c et al. (1995) ",1.62,11,12,0,4,0,0,0,0,0,0,,15,
2-nitronaphthalene,C10H7N1O2,000581-89-5,[O-][N+](=O)c1ccc2ccccc2c1,"debnath,ak et al. (1992) ",3.24,10,7,1,2,0,0,0,0,0,0,,13,
2-naphthalen-2-ylacetic acid,C12H10O2,000581-96-4,OC(=O)Cc1ccc2ccccc2c1,"hansch,c et al. (1995) ",2.81,12,10,0,2,0,0,0,0,0,0,,14,
"5,6-dimethyl-1h-benzimidazole",C9H10N2,000582-60-5,Cc1cc2[nH]cnc2cc1C,"hansch,c et al. (1995) ",2.35,9,10,2,0,0,0,0,0,0,0,,11,
"1,2-dibromobenzene",C6H4Br2,000583-53-9,Brc1ccccc1Br,"hansch,c et al. (1995) ",3.64,6,4,0,0,0,0,0,0,2,0,,8,
"2,5-dichlorophenol",C6H4Cl2O1,000583-78-8,Oc1cc(Cl)ccc1Cl,"hansch,c et al. (1995) ",3.06,6,4,0,1,0,0,0,2,0,0,,9,
pentan-3-ol,C5H12O1,000584-02-1,CCC(O)CC,"hansch,c et al. (1995) ",1.21,5,12,0,1,0,0,0,0,0,0,,6,
"(2-methyl-4-oxo-3-prop-2-enyl-1-cyclopent-2-enyl) 2,2-dimethyl-3-(2-methylprop-1-enyl)cyclopropane-1-carboxylate",C19H26O3,000584-79-2,CC(C)=CC1C(C(=O)OC2CC(=O)C(=C2C)CC=C)C1(C)C,"hansch,c et al. (1995) ",4.78,19,26,0,3,0,0,0,0,0,0,,22,
tert-butyl 2-methylprop-2-enoate,C8H14O2,000585-07-9,CC(=C)C(=O)OC(C)(C)C,"hansch,c et al. (1995) ",2.54,8,14,0,2,0,0,0,0,0,0,,10,
3-tert-butylphenol,C10H14O1,000585-34-2,CC(C)(C)c1cccc(O)c1,sangster (1993) ,3.3,10,14,0,1,0,0,0,0,0,0,,11,
"2,6-ditert-butylpyridine",C13H21N1,000585-48-8,CC(C)(C)c1cccc(n1)C(C)(C)C,"hansch,c et al. (1995) ",4.14,13,21,1,0,0,0,0,0,0,0,,14,
1-(3-methylphenyl)ethanone,C9H10O1,000585-74-0,CC(=O)c1cccc(C)c1,"dunn,wj et al. (1983) ",2.15,9,10,0,1,0,0,0,0,0,0,,10,
3-bromobenzoic acid,C7H5Br1O2,000585-76-2,OC(=O)c1cccc(Br)c1,"hansch,c et al. (1995) ",2.87,7,5,0,2,0,0,0,0,1,0,,10,
1-bromo-3-nitrobenzene,C6H4Br1N1O2,000585-79-5,[O-][N+](=O)c1cccc(Br)c1,"hansch,c et al. (1995) ",2.64,6,4,1,2,0,0,0,0,1,0,,10,
"3,5-dinitrophenol",C6H4N2O5,000586-11-8,Oc1cc(cc(c1)[N+]([O-])=O)[N+]([O-])=O,"hansch,c et al. (1995) ",2.36,6,4,2,5,0,0,0,0,0,0,,13,
1-(3-methoxyphenyl)ethanone,C9H10O2,000586-37-8,COc1cccc(c1)C(C)=O,"hansch,c et al. (1995) ",1.84,9,10,0,2,0,0,0,0,0,0,,11,
3-methoxybenzoic acid,C8H8O3,000586-38-9,COc1cccc(c1)C(O)=O,"hansch,c et al. (1995) ",2.02,8,8,0,3,0,0,0,0,0,0,,11,
1-methyl-4-propan-2-ylidenecyclohexene,C10H16,000586-62-9,CC(C)=C1CCC(=CC1)C,"li,j et al (1998) ",4.47,10,16,0,0,0,0,0,0,0,0,,10,
4-bromobenzoic acid,C7H5Br1O2,000586-76-5,OC(=O)c1ccc(Br)cc1,"hansch,c et al. (1995) ",2.86,7,5,0,2,0,0,0,0,1,0,,10,
1-bromo-4-nitrobenzene,C6H4Br1N1O2,000586-78-7,[O-][N+](=O)c1ccc(Br)cc1,"hansch,c et al. (1995) ",2.55,6,4,1,2,0,0,0,0,1,0,,10,
2-(methoxymethyl)-5-nitrofuran,C6H7N1O4,000586-84-5,COCc1oc(cc1)[N+]([O-])=O,"hansch,c et al. (1995) ",0.89,6,7,1,4,0,0,0,0,0,0,,11,
4-acetylbenzoic acid,C9H8O3,000586-89-0,CC(=O)c1ccc(cc1)C(O)=O,"hansch,c et al. (1995) ",1.61,9,8,0,3,0,0,0,0,0,0,,12,
pyridin-4-ylmethanol,C6H7N1O1,000586-95-8,OCc1ccncc1,"hansch,c et al. (1995) ",0.06,6,7,1,1,0,0,0,0,0,0,,8,
nitrosobenzene,C6H5N1O1,000586-96-9,O=Nc1ccccc1,"hansch,c et al. (1995) ",2.01,6,5,1,1,0,0,0,0,0,0,,8,
2-pyridylmethanol,C6H7N1O1,000586-98-1,OCc1ccccn1,"hansch,c et al. (1995) ",0.06,6,7,1,1,0,0,0,0,0,0,,8,
(3-methylphenyl)methanol,C8H10O1,000587-03-1,Cc1cccc(CO)c1,"hansch,c et al. (1995) ",1.6,8,10,0,1,0,0,0,0,0,0,,9,
m-chlorobenzaldehyde,C7H5Cl1O1,000587-04-2,Clc1cccc(C=O)c1,sangster (1993) ,2.26,7,5,0,1,0,0,0,1,0,0,,9,
"1,1-dimethyl-3(m-chlorophenyl)",C9H11Cl1N2O1,000587-34-8,c1(NC(=O)N(C)C)cccc(Cl)c1,"hansch,c et al. (1995) ",2,9,11,2,1,0,0,0,1,0,0,,13,
3-acetamidobenzoic acid,C9H9N1O3,000587-48-4,CC(=O)Nc1cccc(c1)C(O)=O,"da,yz et al. (1992) ",1.32,9,9,1,3,0,0,0,0,0,0,,13,
"3,5-dichlorophenoxyacetic acid",C8H6Cl2O3,000587-64-4,OC(=O)COc1cc(Cl)cc(Cl)c1,sangster (1994) ,2.84,8,6,0,3,0,0,0,2,0,0,,13,
a-chloroacetanilide,C8H8Cl1N1O1,000587-65-5,C(Cl)C(=O)Nc1ccccc1,"hansch,c et al. (1995) ",1.63,8,8,1,1,0,0,0,1,0,0,,11,
3-chloroacetanilide,C8H8Cl1N1O1,000588-07-8,CC(=O)Nc1cccc(Cl)c1,"nakagawa,y et al. (1992) ",2.15,8,8,1,1,0,0,0,1,0,0,,11,
n-(3-methoxyphenyl)acetamide,C9H11N1O2,000588-16-9,COc1cccc(NC(C)=O)c1,"nakagawa,y et al. (1992) ",1.3,9,11,1,2,0,0,0,0,0,0,,12,
"3,4-dichlorophenoxyacetic acid",C8H6Cl2O3,000588-22-7,OC(=O)COc1ccc(Cl)c(Cl)c1,"hansch,c et al. (1995) ",2.81,8,6,0,3,0,0,0,2,0,0,,13,
m-chlorophenoxyacetic acid,C8H7Cl1O3,000588-32-9,OC(=O)COc1cccc(Cl)c1,"hansch,c et al. (1995) ",2.03,8,7,0,3,0,0,0,1,0,0,,12,
n-(phenylmethyl)acetamide,C9H11N1O1,000588-46-5,CC(=O)NCc1ccccc1,"hansch,c et al. (1995) ",0.95,9,11,1,1,0,0,0,0,0,0,,11,
n-methyl-2-phenylethanamine,C9H13N1,000589-08-2,CNCCc1ccccc1,sangster (1993) ,1.91,9,13,1,0,0,0,0,0,0,0,,10,
4-ethylaniline,C8H11N1,000589-16-2,CCc1ccc(N)cc1,"hansch,c et al. (1995) ",1.96,8,11,1,0,0,0,0,0,0,0,,9,
(4-methylphenyl)methanol,C8H10O1,000589-18-4,Cc1ccc(CO)cc1,"hansch,c et al. (1995) ",1.58,8,10,0,1,0,0,0,0,0,0,,9,
(4-bromophenyl)hydrazine,C6H7Br1N2,000589-21-9,NNc1ccc(Br)cc1,pomona (1987) ,1.39,6,7,2,0,0,0,0,0,1,0,,9,
heptan-4-ol,C7H16O1,000589-55-9,CCCC(O)CCC,"hansch,c et al. (1995) ",2.22,7,16,0,1,0,0,0,0,0,0,,8,
octan-4-ol,C8H18O1,000589-62-8,CCCCC(O)CCC,"funasaki,n et al. (1986) ",2.68,8,18,0,1,0,0,0,0,0,0,,9,
heptan-3-ol,C7H16O1,000589-82-2,CCCCC(O)CC,"hansch,c et al. (1995) ",2.24,7,16,0,1,0,0,0,0,0,0,,8,
4-methylcyclohexan-1-ol,C7H14O1,000589-91-3,CC1CCC(O)CC1,"hansch,c et al. (1995) ",1.79,7,14,0,1,0,0,0,0,0,0,,8,
4-methylcyclohexan-1-one,C7H12O1,000589-92-4,CC1CCC(=O)CC1,"hansch,c et al. (1995) ",1.38,7,12,0,1,0,0,0,0,0,0,,8,
1-bromo-3-methylbenzene,C7H7Br1,000591-17-3,Cc1cccc(Br)c1,"dunn,wj et al. (1983) ",3.41,7,7,0,0,0,0,0,0,1,0,,8,
3-bromoaniline,C6H6Br1N1,000591-19-5,Nc1cccc(Br)c1,"hansch,c et al. (1995) ",2.1,6,6,1,0,0,0,0,0,1,0,,8,
3-bromophenol,C6H5Br1O1,000591-20-8,Oc1cccc(Br)c1,"hansch,c et al. (1995) ",2.63,6,5,0,1,0,0,0,0,1,0,,8,
"3,5-dimethylpyridine",C7H9N1,000591-22-0,Cc1cncc(C)c1,"hansch,c et al. (1995) ",1.78,7,9,1,0,0,0,0,0,0,0,,8,
3-aminophenol,C6H7N1O1,000591-27-5,Nc1cccc(O)c1,"hansch,c et al. (1995) ",0.21,6,7,1,1,0,0,0,0,0,0,,8,
3-methoxybenzaldehyde,C8H8O2,000591-31-1,COc1cccc(C=O)c1,"bazaco,jf & coca,cm (1989) ",1.71,8,8,0,2,0,0,0,0,0,0,,10,
n-(3-ethoxyphenyl)acetamide,C10H13N1O2,000591-33-3,CCOc1cccc(NC(C)=O)c1,"hansch,c et al. (1995) ",1.82,10,13,1,2,0,0,0,0,0,0,,13,
"3,5-dichlorophenol",C6H4Cl2O1,000591-35-5,Oc1cc(Cl)cc(Cl)c1,"hansch,c et al. (1995) ",3.62,6,4,0,1,0,0,0,2,0,0,,9,
iodobenzene,C6H5I1,000591-50-4,Ic1ccccc1,"hansch,c et al. (1995) ",3.25,6,5,0,0,0,0,0,0,0,1,,7,
4-pyrimidinamine,C4H5N3,000591-54-8,Nc1ccncn1,"yamagami,c et al. (1990) ",-0.25,4,5,3,0,0,0,0,0,0,0,,7,
hexan-2-one,C6H12O1,000591-78-6,CCCCC(C)=O,"hansch,c et al. (1995) ",1.38,6,12,0,1,0,0,0,0,0,0,,7,
1-isothiocyanato-2-methylpropane,C5H9N1S1,000591-82-2,CC(C)CN=C=S,"augustin,s et al. (1987) ",2.82,5,9,1,0,1,0,0,0,0,0,,7,
prop-2-enyl acetate,C5H8O2,000591-87-7,CC(=O)OCC=C,"hansch,c et al. (1995) ",0.97,5,8,0,2,0,0,0,0,0,0,,7,
"penta-1,4-diene",C5H8,000591-93-5,C=CCC=C,"hansch,c et al. (1995) ",2.48,5,8,0,0,0,0,0,0,0,0,,5,
butylurea,C5H12N2O1,000592-31-4,CCCCNC(N)=O,"hansch,c et al. (1995) ",0.41,5,12,2,1,0,0,0,0,0,0,,8,
butyl carbamate,C5H11N1O2,000592-35-8,CCCCOC(N)=O,"hansch,c et al. (1995) ",0.85,5,11,1,2,0,0,0,0,0,0,,8,
hex-1-ene,C6H12,000592-41-6,CCCCC=C,"hansch,c et al. (1995) ",3.39,6,12,0,0,0,0,0,0,0,0,,6,
"hexa-1,5-diene",C6H10,000592-42-7,C=CCCC=C,"hansch,c et al. (1995) ",2.87,6,10,0,0,0,0,0,0,0,0,,6,
"1,3-hexadiene",C6H10,000592-48-3,CCC=CC=C,"hansch,c et al. (1995) ",3.16,6,10,0,0,0,0,0,0,0,0,,6,
1-fluoropentane,C5H11F1,000592-50-7,CCCCCF,"hansch,c et al. (1995) ",2.33,5,11,0,0,0,0,1,0,0,0,,6,
"cyclohexa-1,3-diene",C6H8,000592-57-4,C1CC=CC=C1,"hansch,c et al. (1995) ",2.47,6,8,0,0,0,0,0,0,0,0,,6,
hept-1-ene,C7H14,000592-76-7,CCCCCC=C,"hansch,c et al. (1995) ",3.99,7,14,0,0,0,0,0,0,0,0,,7,
1-isothiocyanatobutane,C5H9N1S1,000592-82-5,CCCCN=C=S,"augustin,s et al. (1987) ",2.92,5,9,1,0,1,0,0,0,0,0,,7,
fluoromethane,C1H3F1,000593-53-3,CF,"hansch,c et al. (1995) ",0.51,1,3,0,0,0,0,1,0,0,0,,2,
bromoethene,C2H3Br1,000593-60-2,BrC=C,"hansch,c et al. (1995) ",1.57,2,3,0,0,0,0,0,0,1,0,,3,
chlorofluoromethane,C1H2Cl1F1,000593-70-4,FCCl,"hansch,c et al. (1995) ",0.51,1,2,0,0,0,0,1,1,0,0,,3,
"butane, 2-chloro-2-methyl-",C5H11Cl1,000594-36-5,CCC(C)(C)Cl,"hansch,c et al. (1995) ",2.52,5,11,0,0,0,0,0,1,0,0,,6,
2-hydroxy-2-methylpropanoic acid,C4H8O3,000594-61-6,CC(C)(O)C(O)=O,"hansch,c et al. (1995) ",-0.36,4,8,0,3,0,0,0,0,0,0,,7,
trichloroacetamide,C2H2Cl3N1O1,000594-65-0,NC(=O)C(Cl)(Cl)Cl,"hansch,c et al. (1995) ",1.04,2,2,1,1,0,0,0,3,0,0,,7,
"n,n-dihydroxy-2-methylpropan-2-amine",C4H9N1O2,000594-70-7,CC(C)(C)N(O)O,"hansch,c et al. (1995) ",1.17,4,9,1,2,0,0,0,0,0,0,,7,
strospeside,C30H46O9,000595-21-1,COC1[C@@H](O)C(C)O[C@@H](O[C@@H]2CC[C@@]3(C)[C@H](CCC4C3CC[C@]5(C)[C@H](C(O)C[C@]45O)C6=CC(=O)OC6)C2)C1O,"hansch,c et al. (1995) ",0.59,30,46,0,9,0,0,0,0,0,0,,39,
"2,2-dimethylbutanoic acid",C6H12O2,000595-37-9,CCC(C)(C)C(O)=O,"hansch,c et al. (1995) ",1.9,6,12,0,2,0,0,0,0,0,0,,8,
"2,2-dimethylpropanedioic acid",C5H8O4,000595-46-0,CC(C)(C(O)=O)C(O)=O,"hansch,c et al. (1995) ",0.39,5,8,0,4,0,0,0,0,0,0,,9,
1-ethylsulfonylethane,C4H10O2S1,000597-35-3,CC[S](=O)(=O)CC,"hansch,c et al. (1995) ",-0.59,4,10,0,2,1,0,0,0,0,0,,7,
1-propylsulfonylpropane,C6H14O2S1,000598-03-8,CCC[S](=O)(=O)CCC,"hansch,c et al. (1995) ",0.39,6,14,0,2,1,0,0,0,0,0,,9,
"1,1,2-tribromoethene",C2H1Br3,000598-16-3,BrC=C(Br)Br,"canton,jh & wegman,rcc (1983) ",3.2,2,1,0,0,0,0,0,0,3,0,,5,
"2,2-dichloroethanol",C2H4Cl2O1,000598-38-9,OCC(Cl)Cl,"hansch,c et al. (1995) ",0.37,2,4,0,1,0,0,0,2,0,0,,5,
methylurea,C2H6N2O1,000598-50-5,CNC(N)=O,"sotomatsu,t et al. (1987) ",-1.4,2,6,2,1,0,0,0,0,0,0,,5,
methylthiourea,C2H6N2S1,000598-52-7,CNC(N)=S,"govers,h et al. (1986) ",-0.69,2,6,2,0,1,0,0,0,0,0,,5,
methyl carbamate,C2H5N1O2,000598-55-0,COC(N)=O,"hansch,c et al. (1995) ",-0.66,2,5,1,2,0,0,0,0,0,0,,5,
ethyl-dimethyl-amine,C4H11N1,000598-56-1,CCN(C)C,"hansch,c et al. (1995) ",0.7,4,11,1,0,0,0,0,0,0,0,,5,
2-bromopropanoic acid,C3H5Br1O2,000598-72-1,CC(Br)C(O)=O,"hansch,c et al. (1995) ",0.92,3,5,0,2,0,0,0,0,1,0,,6,
3-methylbutan-2-ol,C5H12O1,000598-75-4,CC(C)C(C)O,"hansch,c et al. (1995) ",1.28,5,12,0,1,0,0,0,0,0,0,,6,
"methyl 2,2-dimethylpropanoate",C6H12O2,000598-98-1,COC(=O)C(C)(C)C,"hansch,c et al. (1995) ",1.83,6,12,0,2,0,0,0,0,0,0,,8,
methyl trichloroacetate,C3H3Cl3O2,000598-99-2,COC(=O)C(Cl)(Cl)Cl,"hansch,c et al. (1995) ",2.03,3,3,0,2,0,0,0,3,0,0,,8,
n-hydroxybenzenesulfonamide,C6H7N1O3S1,000599-71-3,ON[S](=O)(=O)c1ccccc1,pomona (1987) ,0.48,6,7,1,3,1,0,0,0,0,0,,11,
4-amino-n-(5-methylpyrimidin-2-yl)benzenesulfonamide,C11H12N4O2S1,000599-88-2,Cc1cnc(N[S](=O)(=O)c2ccc(N)cc2)nc1,sangster (1993) ,0.34,11,12,4,2,1,0,0,0,0,0,,18,
"n,n-di(propan-2-yl)nitrous amide",C6H14N2O1,000601-77-4,CC(C)N(N=O)C(C)C,"hansch,c et al. (1995) ",1.38,6,14,2,1,0,0,0,0,0,0,,9,
"2,6-dibromobenzoic acid",C7H4Br2O2,000601-84-3,OC(=O)c1c(Br)cccc1Br,biobyte (1995) ,3.58,7,4,0,2,0,0,0,0,2,0,,11,