Names,Formula,CAS No,SMILES,Reference,Exp logp,C,H,N,O,S,P,F,Cl,Br,I,,,
ronnel,C8H8Cl3O3P1S1,000299-84-3,CO[P](=S)(OC)Oc1cc(Cl)c(Cl)cc1Cl,sangster (1994) ,4.88,8,8,0,3,1,1,0,3,0,0,,16,
dmpa,C10H14Cl2N1O2P1S1,000299-85-4,C[C@H]1C[C@@H]2[C@H](CC[C@@]3(C)[C@H]2CC[C@]3(OC(C)=O)C(C)=O)[C@@]4(C)CCC(=O)C=C14,"hansch,c et al. (1995) ",4.3,10,14,1,2,1,1,0,2,0,0,,17,
crufomate,C12H19Cl1N1O3P1,000299-86-5,CN[P](=O)(OC)Oc1ccc(cc1Cl)C(C)(C)C,"hansch,c et al. (1995) ",3.42,12,19,1,3,0,1,0,1,0,0,,18,
2-amino-3-(4-hydroxy-3-methoxyphenyl)propanoic acid,C10H13N1O4,000300-48-1,COc1cc(CC(N)C(O)=O)ccc1O,"hansch,c et al. (1995) ",-2.54,10,13,1,4,0,0,0,0,0,0,,15,
prop-2-enylbenzene,C9H10,000300-57-2,C=CCc1ccccc1,"hansch,c et al. (1995) ",3.23,9,10,0,0,0,0,0,0,0,0,,9,
naled,C4H7Br2Cl2O4P1,000300-76-5,CO[P](=O)(OC)OC(Br)C(Cl)(Cl)Br,"hansch,c et al. (1995) ",1.38,4,7,0,4,0,1,0,2,2,0,,13,
methyl linolenate,C19H32O2,000301-00-8,CC\C=C/C/C=C\C\C=C/CCCCCCCC(=O)OC,"krop,hb et al. (1997) ",6.29,19,32,0,2,0,0,0,0,0,0,,21,
1-dimethoxyphosphorylsulfanyl-2-ethylsulfinylethane,C6H15O4P1S2,000301-12-2,CC[S](=O)CCS[P](=O)(OC)OC,"tomlin,c (1997) ",-0.74,6,15,0,4,2,1,0,0,0,0,,13,
choral hydrate,C2H3Cl3O2,000302-17-0,ClC(Cl)(Cl)C(O)O,"hansch,c et al. (1995) ",0.99,2,3,0,2,0,0,0,3,0,0,,7,
"1-[3-cyano-3,3-di(phenyl)propyl]-4-piperidin-1-ylpiperidine-4-carboxamide",C27H34N4O1,000302-41-0,NC(=O)C1(CCN(CC1)CCC(C#N)(c2ccccc2)c3ccccc3)N4CCCCC4,sangster (1993) ,3.91,27,34,4,1,0,0,0,0,0,0,,32,
retinoic acid,C20H28O2,000302-79-4,CC1=C(\C=C\C(C)=C\C=C\C(C)=C\C(O)=O)C(C)(C)CCC1,"hansch,c et al. (1995) ",6.3,20,28,0,2,0,0,0,0,0,0,,22,
"2,6-dihydroxybenzoic acid",C7H6O4,000303-07-1,OC(=O)c1c(O)cccc1O,"hansch,c et al. (1995) ",2.2,7,6,0,4,0,0,0,0,0,0,,11,
lasiocarpine,C21H33N1O7,000303-34-4,CO[C@H](C)[C@](O)(C(=O)OCC1=CCN2CC[C@H](OC(=O)C(/C)=C\C)[C@@H]12)C(C)(C)O,"ellington,jt & stancil,fe (1988) ",1.28,21,33,1,7,0,0,0,0,0,0,,29,
"2,3-dihydroxybenzoic acid",C7H6O4,000303-38-8,OC(=O)c1cccc(O)c1O,"hansch,c et al. (1995) ",1.2,7,6,0,4,0,0,0,0,0,0,,11,
chlorimipramine,C19H23Cl1N2,000303-49-1,CN(C)CCCN1c2ccccc2CCc3ccc(Cl)cc13,"hansch,c et al. (1995) ",5.19,19,23,2,0,0,0,0,1,0,0,,22,
chlorambucil,C14H19Cl2N1O2,000305-03-3,OC(=O)CCCc1ccc(cc1)N(CCCl)CCCl,"hansch,c et al. (1995); ph 7.4 ",1.7,14,19,1,2,0,0,0,2,0,0,,19,
"2,4-diaminobutanoic acid",C4H10N2O2,000305-62-4,NCCC(N)C(O)=O,"hansch,c et al. (1995) ",-4.64,4,10,2,2,0,0,0,0,0,0,,8,
2-(4-hydroxy-3-methoxyphenyl)acetic acid,C9H10O4,000306-08-1,COc1cc(CC(O)=O)ccc1O,"lahann,tr et al. (1989) ",0.33,9,10,0,4,0,0,0,0,0,0,,13,
hydroxyiminoacetone,C3H5N1O2,000306-44-5,CC(=O)C=NO,"hansch,c et al. (1995) ",0.34,3,5,1,2,0,0,0,0,0,0,,6,
aldrin,C12H8Cl6,000309-00-2,ClC1=C(Cl)C2(Cl)C3C4CC(C=C4)C3C1(Cl)C2(Cl)Cl,"debruijn,j et al. (1989) ",6.5,12,8,0,0,0,0,0,6,0,0,,18,
pentafluoroethylbenzene,C8H5F5,000309-11-5,FC(F)(F)C(F)(F)c1ccccc1,biobyte (1995) ,3.36,8,5,0,0,0,0,5,0,0,0,,13,
diethyl (4-nitrophenyl) phosphate,C10H14N1O6P1,000311-45-5,CCO[P](=O)(OCC)Oc1ccc(cc1)[N+]([O-])=O,sangster (1994) ,1.98,10,14,1,6,0,1,0,0,0,0,,18,
4-(4-fluorophenyl)sulfonylaniline,C12H10F1N1O2S1,000312-35-6,Nc1ccc(cc1)[S](=O)(=O)c2ccc(F)cc2,"hansch,c et al. (1995) ",2.17,12,10,1,2,1,0,1,0,0,0,,17,
2-(trifluoromethyl)-1h-benzimidazole,C8H5F3N2,000312-73-2,FC(F)(F)c1[nH]c2ccccc2n1,"hansch,c et al. (1995) ",2.67,8,5,2,0,0,0,3,0,0,0,,13,
"17-acetyl-11-hydroxy-10,13-dimethyl-1,2,6,7,8,9,11,12,14,15,16,17-dodecahydrocyclopenta[a]phenanthren-3-one",C21H30O3,000312-90-3,CC(=O)C1CCC2C3CCC4=CC(=O)CCC4(C)C3C(O)CC12C,"hansch,c et al. (1995) ",2.36,21,30,0,3,0,0,0,0,0,0,,24,
"(4-dimethylamino-3,5-dimethylphenyl) n-methylcarbamate",C12H18N2O2,000315-18-4,CNC(=O)Oc1cc(C)c(N(C)C)c(C)c1,sangster (1994) ,2.56,12,18,2,2,0,0,0,0,0,0,,16,
allopurinol,C5H4N4O1,000315-30-0,O=C1N=CN=C2NNC=C12,"bundgaard,h & falch,e (1985) ",-0.55,5,4,4,1,0,0,0,0,0,0,,10,
8-cf3 quinoline,C10H6F3N1,000317-57-7,FC(F)(F)c1cccc2cccnc12,"hansch,c et al. (1995) ",2.5,10,6,1,0,0,0,3,0,0,0,,14,
5-chlorosalicylic acid,C7H5Cl1O3,000321-14-2,OC(=O)c1cc(Cl)ccc1O,"hansch,c et al. (1995) ",3.09,7,5,0,3,0,0,0,1,0,0,,11,
1-fluoro-2-methoxybenzene,C7H7F1O1,000321-28-8,COc1ccccc1F,"nakagawa,y et al. (1992) ",2.14,7,7,0,1,0,0,1,0,0,0,,9,
"pyrido[3,2-b]pyrazine",C7H5N3,000322-46-3,c1cnc2nccnc2c1,"hansch,c et al. (1995) ",-0.04,7,5,3,0,0,0,0,0,0,0,,10,
7-(trifluoromethyl)quinoline,C10H6F3N1,000325-14-4,FC(F)(F)c1ccc2cccnc2c1,"hansch,c et al. (1995) ",3.02,10,6,1,0,0,0,3,0,0,0,,14,
"4,4,4-trifluoro-1-thiophen-2-ylbutane-1,3-dione",C8H5F3O2S1,000326-91-0,FC(F)(F)C(=O)CC(=O)c1sccc1,"hansch,c et al. (1995) ",1.46,8,5,0,2,1,0,3,0,0,0,,14,
2-cf3-5-no2 benzimadazole,C8H4F3N3O2,000327-19-5,C1=CC2=C(C=C1[N+](=O)[O-])NC(=N2)C(F)(F)F,"hansch,c et al. (1995) ",2.68,8,4,3,2,0,0,3,0,0,0,,16,
2-aminohexanoic acid,C6H13N1O2,000327-57-1,CCCCC(N)C(O)=O,"hansch,c et al. (1995) ",-1.53,6,13,1,2,0,0,0,0,0,0,,9,
trichloronate,C10H12Cl3O2P1S1,000327-98-0,CCO[P](=S)(CC)Oc1cc(Cl)c(Cl)cc1Cl,"hansch,c et al. (1995) ",5.23,10,12,0,2,1,1,0,3,0,0,,17,
"3,5-bis(trifluoromethyl)aniline",C8H5F6N1,000328-74-5,Nc1cc(cc(c1)C(F)(F)F)C(F)(F)F,"hansch,c et al. (1995) ",3.57,8,5,1,0,0,0,6,0,0,0,,15,
4-acetamidobenzenesulfonyl fluoride,C8H8F1N1O3S1,000329-20-4,CC(=O)Nc1ccc(cc1)[S](F)(=O)=O,"hansch,c et al. (1995) ",2.17,8,8,1,3,1,0,1,0,0,0,,14,
5-(dihydroxyamino)-2-nitrophenol,C6H4N2O5,000329-71-5,ON(O)c1ccc(c(O)c1)[N+]([O-])=O,"hansch,c et al. (1995) ",1.75,6,4,2,5,0,0,0,0,0,0,,13,
6-aminopyridine-3-carboxamide,C6H7N3O1,000329-89-5,NC(=O)c1ccc(N)nc1,"wang,r et al. (1997) ",0.7,6,7,3,1,0,0,0,0,0,0,,10,
"3-(3-fluorophenyl)-1,1-dimethylurea",C9H11F1N2O1,000330-39-2,CN(C)C(=O)Nc1cccc(F)c1,"hansch,c et al. (1995) ",1.37,9,11,2,1,0,0,1,0,0,0,,13,
diuron,C9H10Cl2N2O1,000330-54-1,CN(C)C(=O)Nc1ccc(Cl)c(Cl)c1,"hansch,c et al. (1995) ",2.68,9,10,2,1,0,0,0,2,0,0,,14,
linuron,C9H10Cl2N2O2,000330-55-2,CON(C)C(=O)Nc1ccc(Cl)c(Cl)c1,"hansch,c et al. (1995) ",3.2,9,10,2,2,0,0,0,2,0,0,,15,
"[3,5-di(propan-2-yl)phenyl] n-methylcarbamate",C14H21N1O2,000330-64-3,CNC(=O)Oc1cc(cc(c1)C(C)C)C(C)C,"hansch,c et al. (1995) ",3.79,14,21,1,2,0,0,0,0,0,0,,17,
2-(3-fluorophenyl)acetic acid,C8H7F1O2,000331-25-9,OC(=O)Cc1cccc(F)c1,"hansch,c et al. (1995) ",1.65,8,7,0,2,0,0,1,0,0,0,,11,
"2-propenoic acid, 3-(3,4-dihydroxyphenyl)-, (e)-",C9H8O4,000331-39-5,OC(=O)/C=C/c1ccc(O)c(O)c1,sangster (1993) ,1.15,9,8,0,4,0,0,0,0,0,0,,13,
"3-(4-fluorophenyl)-1,1-dimethylurea",C9H11F1N2O1,000332-33-2,CN(C)C(=O)Nc1ccc(F)cc1,"hansch,c et al. (1995) ",1.13,9,11,2,1,0,0,1,0,0,0,,13,
diethoxy-(6-methyl-2-propan-2-ylpyrimidin-4-yl)oxy-sulfanylidenephosphorane,C12H21N2O3P1S1,000333-41-5,CCO[P](=S)(OCC)Oc1cc(C)nc(n1)C(C)C,"hansch,c et al. (1995) ",3.81,12,21,2,3,1,1,0,0,0,0,,19,
decanoic acid,C10H20O2,000334-48-5,CCCCCCCCCC(O)=O,"hansch,c et al. (1995) ",4.09,10,20,0,2,0,0,0,0,0,0,,12,
3-(4-aminophenyl)sulfonyl-1-butylurea,C11H17N3O3S1,000339-43-5,CCCCNC(=O)N[S](=O)(=O)c1ccc(N)cc1,sangster (1993) ,1.01,11,17,3,3,1,0,0,0,0,0,,18,
"2-(hydroxymethyl)-5-(6-methylsulfanylpurin-9-yl)oxolane-3,4-diol",C11H14N4O4S1,000342-69-8,CSc1ncnc2n(cnc12)C3OC(CO)C(O)C3O,sangster (1994) ,0.09,11,14,4,4,1,0,0,0,0,0,,20,
2-cf3-4-chloroacetanilide,C9H7Cl1F3N1O1,000344-53-6,Clc1ccc(NC(=O)(C))c(C(F)(F)F)c1,"nakagawa,y et al. (1992) ",1.98,9,7,1,1,0,0,3,1,0,0,,15,
n-[2-(trifluoromethyl)phenyl]acetamide,C9H8F3N1O1,000344-62-7,CC(=O)Nc1ccccc1C(F)(F)F,"nakagawa,y et al. (1992) ",1.17,9,8,1,1,0,0,3,0,0,0,,14,
o-fluorobenzyl chloride,C7H6Cl1F1,000345-35-7,Fc1ccccc1CCl,"hansch,c et al. (1995) ",2.67,7,6,0,0,0,0,1,1,0,0,,9,
polythiazide,C11H13Cl1F3N3O4S3,000346-18-9,CN1C(CSCC(F)(F)F)Nc2cc(Cl)c(cc2[S]1(=O)=O)[S](N)(=O)=O,sangster (1994) ,1.9,11,13,3,4,3,0,3,1,0,0,,25,
2-(2-fluorophenoxy)acetic acid,C8H7F1O3,000348-10-7,OC(=O)COc1ccccc1F,"hansch,c et al. (1995) ",1.39,8,7,0,3,0,0,1,0,0,0,,12,
2-fluoroaniline,C6H6F1N1,000348-54-9,Nc1ccccc1F,"hansch,c et al. (1995) ",1.26,6,6,1,0,0,0,1,0,0,0,,8,
3-cf3-4-chloroacetanilide,C9H7Cl1F3N1O1,000348-90-3,Clc1ccc(NC(=O)(C))cc1C(F)(F)F,"nakagawa,y et al. (1992) ",3.33,9,7,1,1,0,0,3,1,0,0,,15,
[3-(trifluoromethyl)phenyl]methanol,C8H7F3O1,000349-75-7,OCc1cccc(c1)C(F)(F)F,"hansch,c et al. (1995) ",2.24,8,7,0,1,0,0,3,0,0,0,,12,
2-[3-(trifluoromethyl)phenoxy]acetic acid,C9H7F3O3,000349-82-6,OC(=O)COc1cccc(c1)C(F)(F)F,"hansch,c et al. (1995) ",2.36,9,7,0,3,0,0,3,0,0,0,,15,
n-[4-(trifluoromethyl)phenyl]acetamide,C9H8F3N1O1,000349-97-3,CC(=O)Nc1ccc(cc1)C(F)(F)F,pomona (1987) ,2.52,9,8,1,1,0,0,3,0,0,0,,14,
1-pyridin-3-ylethanone,C7H7N1O1,000350-03-8,CC(=O)c1cccnc1,"hansch,c et al. (1995) ",0.43,7,7,1,1,0,0,0,0,0,0,,9,
1-fluoro-4-nitrobenzene,C6H4F1N1O2,000350-46-9,[O-][N+](=O)c1ccc(F)cc1,"hansch,c et al. (1995) ",1.8,6,4,1,2,0,0,1,0,0,0,,10,
n-(3-fluorophenyl)acetamide,C8H8F1N1O1,000351-28-0,CC(=O)Nc1cccc(F)c1,"nakagawa,y et al. (1992) ",1.65,8,8,1,1,0,0,1,0,0,0,,11,
2-[3-(trifluoromethyl)phenyl]acetic acid,C9H7F3O2,000351-35-9,OC(=O)Cc1cccc(c1)C(F)(F)F,"hansch,c et al. (1995) ",2.62,9,7,0,2,0,0,3,0,0,0,,14,
n-[3-(trifluoromethyl)phenyl]acetamide,C9H8F3N1O1,000351-36-0,CC(=O)Nc1cccc(c1)C(F)(F)F,"hansch,c et al. (1995) ",2.56,9,8,1,1,0,0,3,0,0,0,,14,
n-(4-fluorophenyl)acetamide,C8H8F1N1O1,000351-83-7,CC(=O)Nc1ccc(F)cc1,"hansch,c et al. (1995) ",1.47,8,8,1,1,0,0,1,0,0,0,,11,
p-fluorobenzyl chloride,C7H6Cl1F1,000352-11-4,Fc1ccc(CCl)cc1,"hansch,c et al. (1995) ",2.73,7,6,0,0,0,0,1,1,0,0,,9,
1-fluoro-4-methylbenzene,C7H7F1,000352-32-9,Cc1ccc(F)cc1,"dunn,wj et al. (1983) ",2.58,7,7,0,0,0,0,1,0,0,0,,8,
p-chlorofluorobenzene,C6H4Cl1F1,000352-33-0,Fc1ccc(Cl)cc1,"dunn,wj et al. (1983) ",2.78,6,4,0,0,0,0,1,1,0,0,,8,
1-(2-hydroxy-4-methoxyphenyl)ethanone,C9H10O3,000552-41-0,COc1ccc(C(C)=O)c(O)c1,biobyte (1995) ,1.98,9,10,0,3,0,0,0,0,0,0,,12,
"5,5,5-trifluoro-1-pentanol",C5H9F3O1,000352-61-4,OCCCCC(F)(F)F,"muller,n (1986) ",1.15,5,9,0,1,0,0,3,0,0,0,,9,
1-fluoro-3-methylbenzene,C7H7F1,000352-70-5,Cc1cccc(F)c1,"dunn,wj et al. (1983) ",2.75,7,7,0,0,0,0,1,0,0,0,,8,
"2,2,2-trifluoroethyl 2-methylprop-2-enoate",C6H7F3O2,000352-87-4,CC(=C)C(=O)OCC(F)(F)F,sangster (1993) ,1.56,6,7,0,2,0,0,3,0,0,0,,11,
ethylsulfanylethane,C4H10S1,000352-93-2,CCSCC,"hansch,c et al. (1995) ",1.95,4,10,0,0,1,0,0,0,0,0,,5,
"2,2,2-trifluoroacetamide",C2H2F3N1O1,000354-38-1,NC(=O)C(F)(F)F,"hansch,c et al. (1995) ",0.12,2,2,1,1,0,0,3,0,0,0,,7,
"1,1,2,2,3,3,4,4,5,5,6,6-dodecafluorocyclohexane",C6F12,000355-68-0,FC1(F)C(F)(F)C(F)(F)C(F)(F)C(F)(F)C1(F)F,"hansch,c et al. (1995) ",2.91,6,0,0,0,0,0,12,0,0,0,,18,
fluocinonide,C26H32F2O7,000356-12-7,CC(=O)OCC(=O)[C@@]12OC(C)(C)O[C@@H]1C[C@H]3[C@@H]4C[C@H](F)C5=CC(=O)C=C[C@]5(C)[C@@]4(F)[C@@H](O)C[C@]23C,"hansch,c et al. (1995) ",3.19,26,32,0,7,0,0,2,0,0,0,,35,
"3-methyl-4-morpholin-4-yl-2,2-di(phenyl)-1-pyrrolidin-1-ylbutan-1-one",C25H32N2O2,000357-56-2,CC(CN1CCOCC1)C(C(=O)N2CCCC2)(c3ccccc3)c4ccccc4,sangster (1994) ,3.61,25,32,2,2,0,0,0,0,0,0,,29,
nsc123398,C23H26N2O4,000357-57-3,COc1cc2N3C4C5C(CC3=O)OCC=C6CN7CCC4(C7CC56)c2cc1OC,"hansch,c et al. (1995) ",0.98,23,26,2,4,0,0,0,0,0,0,,29,
39188-58-4,C19H27N1O1,000359-83-1,CC1C2Cc3ccc(O)cc3C1(C)CCN2CC=C(C)C,daylight (1999) ,4.64,19,27,1,1,0,0,0,0,0,0,,21,
"4h-benzo[e][1,2,4]thiadiazine 1,1-dioxide",C7H6N2O2S1,000359-85-3,O=[S]1(=O)N=CNc2ccccc12,"hansch & leo, 1985",1.07,7,6,2,2,1,0,0,0,0,0,,12,
2-(trifluoromethyl)benzamide,C8H6F3N1O1,000360-64-5,NC(=O)c1ccccc1C(F)(F)F,"nakagawa,y et al. (1992) ",0.68,8,6,1,1,0,0,3,0,0,0,,13,
"2-[4-(3,12-dihydroxy-10,13-dimethyl-2,3,4,5,6,7,8,9,11,12,14,15,16,17-tetradecahydro-1h-cyclopenta[a]phenanthren-17-yl)pentanoylamino]acetic acid",C26H43N1O5,000360-65-6,CC(CCC(=O)NCC(O)=O)C1CCC2C3CCC4CC(O)CCC4(C)C3CC(O)C12C,"roda,a et al. (1990) ",2.25,26,43,1,5,0,0,0,0,0,0,,32,
"3-methyl-4h-benzo[e][1,2,4]thiadiazine 1,1-dioxide",C8H8N2O2S1,000360-81-6,CC1=N[S](=O)(=O)c2ccccc2N1,"hansch & leo, 1985",1.65,8,8,2,2,1,0,0,0,0,0,,13,
5-amino-3h-imidazole-4-carboxamide,C4H6N4O1,000360-97-4,NC(=O)c1[nH]cnc1N,"hansch,c et al. (1995) ",-1.1,4,6,4,1,0,0,0,0,0,0,,9,
1-[10-(2-dimethylaminopropyl)phenothiazin-2-yl]propan-1-one,C20H24N2O1S1,000362-29-8,CCC(=O)c1ccc2Sc3ccccc3N(CC(C)N(C)C)c2c1,biobyte (1995) ,4.79,20,24,2,1,1,0,0,0,0,0,,24,
"2-phenylcyclohexa-2,5-diene-1,4-dione",C12H8O2,000363-03-1,O=C1C=CC(=O)C(=C1)c2ccccc2,sangster (1993) ,1.95,12,8,0,2,0,0,0,0,0,0,,14,
prostaglandin e2,C20H32O5,000363-24-6,CCCCC[C@H](O)/C=C/[C@H]1[C@H](O)CC(=O)[C@@H]1C\C=C/CCCC(O)=O,"hansch,c et al. (1995) ",2.82,20,32,0,5,0,0,0,0,0,0,,25,
"1,2,3,4,5-pentafluorobenzene",C6H1F5,000363-72-4,Fc1cc(F)c(F)c(F)c1F,"hansch,c et al. (1995) ",2.53,6,1,0,0,0,0,5,0,0,0,,11,
metoclopramide,C14H22Cl1N3O2,000364-62-5,CCN(CC)CCNC(=O)c1cc(Cl)c(N)cc1OC,"hansch,c et al. (1995) ",2.62,14,22,3,2,0,0,0,1,0,0,,20,
"124-benzthidiazn-1,1-o2-3-me-7-cl",C8H7Cl1N2O2S1,000364-98-7,c1(Cl)cc2S(=O)(=O)NC(C)=Nc2cc1,"hansch,c et al. (1995) ",1.2,8,7,2,2,1,0,0,1,0,0,,14,
2-pyridin-2-ylpyridine,C10H8N2,000366-18-7,c1ccc(nc1)c2ccccn2,"de voogt,p et al. (1990) ",1.5,10,8,2,0,0,0,0,0,0,0,,12,
"1,2-difluorobenzene",C6H4F2,000367-11-3,Fc1ccccc1F,"hansch,c et al. (1995) ",2.37,6,4,0,0,0,0,2,0,0,0,,8,
2-fluorophenol,C6H5F1O1,000367-12-4,Oc1ccccc1F,"hansch,c et al. (1995) ",1.71,6,5,0,1,0,0,1,0,0,0,,8,
3-chloro-4-fluoroaniline,C6H5Cl1F1N1,000367-21-5,Nc1ccc(F)c(Cl)c1,"hansch,c et al. (1995) ",2.06,6,5,1,0,0,0,1,1,0,0,,9,
"1,2,4-trifluorobenzene",C6H3F3,000367-23-7,Fc1ccc(F)c(F)c1,sangster (1993) ,2.52,6,3,0,0,0,0,3,0,0,0,,9,
"2,4-difluoroaniline",C6H5F2N1,000367-25-9,Nc1ccc(F)cc1F,"hansch,c et al. (1995) ",1.54,6,5,1,0,0,0,2,0,0,0,,9,
"2-(hydroxymethyl)-6-propan-2-ylsulfanyloxane-3,4,5-triol",C9H18O5S1,000367-93-1,CC(C)SC1OC(CO)C(O)C(O)C1O,"hansch,c et al. (1995) ",-1.26,9,18,0,5,1,0,0,0,0,0,,15,
2-fluoropyridine-4-carbohydrazide,C6H6F1N3O1,000369-24-4,NNC(=O)c1ccnc(F)c1,"hansch,c et al. (1995) ",-0.11,6,6,3,1,0,0,1,0,0,0,,11,
3-(pyrrolidin-1-ylmethyl)pyridine,C10H14N2,000370-09-2,C1CCN(C1)Cc2cccnc2,"hansch,c et al. (1995) ",1.1,10,14,2,0,0,0,0,0,0,0,,12,
4-fluoroaniline,C6H6F1N1,000371-40-4,Nc1ccc(F)cc1,"hansch,c et al. (1995) ",1.15,6,6,1,0,0,0,1,0,0,0,,8,
4-fluorophenol,C6H5F1O1,000371-41-5,Oc1ccc(F)cc1,"hansch,c et al. (1995) ",1.77,6,5,0,1,0,0,1,0,0,0,,8,
2-fluoroethanol,C2H5F1O1,000371-62-0,OCCF,"hansch,c et al. (1995) ",-0.67,2,5,0,1,0,0,1,0,0,0,,4,
2-cyanoacetic acid,C3H3N1O2,000372-09-8,OC(=O)CC#N,"hansch,c et al. (1995) ",-0.76,3,3,1,2,0,0,0,0,0,0,,6,
"1,3-difluorobenzene",C6H4F2,000372-18-9,Fc1cccc(F)c1,"dunn,wj et al. (1983) ",2.21,6,4,0,0,0,0,2,0,0,0,,8,
3-fluoroaniline,C6H6F1N1,000372-19-0,Nc1cccc(F)c1,"hansch,c et al. (1995) ",1.3,6,6,1,0,0,0,1,0,0,0,,8,
3-fluorophenol,C6H5F1O1,000372-20-3,Oc1cccc(F)c1,"hansch,c et al. (1995) ",1.93,6,5,0,1,0,0,1,0,0,0,,8,
3-fluoropyridine,C5H4F1N1,000372-47-4,Fc1cccnc1,"hansch,c et al. (1995) ",0.77,5,4,1,0,0,0,1,0,0,0,,7,
2-fluoropyridine,C5H4F1N1,000372-48-5,Fc1ccccn1,"yamagami,c et al. (1990a) ",0.84,5,4,1,0,0,0,1,0,0,0,,7,
2-amino-5-(carbamoylamino)pentanoic acid,C6H13N3O3,000372-75-8,NC(CCCNC(N)=O)C(O)=O,sangster (1994) ,-3.19,6,13,3,3,0,0,0,0,0,0,,12,
"1,1,1-trifluoropropan-2-ol",C3H5F3O1,000374-01-6,CC(O)C(F)(F)F,"hansch,c et al. (1995) ",0.71,3,5,0,1,0,0,3,0,0,0,,7,
"2,2,3,3,4,4,4-heptafluorobutan-1-ol",C4H3F7O1,000375-01-9,OCC(F)(F)C(F)(F)C(F)(F)F,"hansch,c et al. (1995) ",1.94,4,3,0,1,0,0,7,0,0,0,,12,
"9-fluoro-11-hydroxy-17-(2-hydroxyacetyl)-10,13,16-trimethyl-7,8,11,12,14,15,16,17-octahydro-6h-cyclopenta[a]phenanthren-3-one",C22H29F1O4,000382-67-2,CC1CC2C3CCC4=CC(=O)C=CC4(C)C3(F)C(O)CC2(C)C1C(=O)CO,"hansch,c et al. (1995) ",2.35,22,29,0,4,0,0,1,0,0,0,,27,
"ethyl 2,2,2-trifluoroacetate",C4H5F3O2,000383-63-1,CCOC(=O)C(F)(F)F,"hansch,c et al. (1995) ",1.18,4,5,0,2,0,0,3,0,0,0,,9,
1-nitro-2-(trifluoromethyl)benzene,C7H4F3N1O2,000384-22-5,[O-][N+](=O)c1ccccc1C(F)(F)F,"hansch,c et al. (1995) ",2.58,7,4,1,2,0,0,3,0,0,0,,13,
111f3-22-di(p-meophenyl)ethane,C16H15F3O2,000384-97-4,FC(F)(F)C(c2ccc(OC)cc2)c1ccc(OC)cc1,"hansch,c et al. (1995) ",4.76,16,15,0,2,0,0,3,0,0,0,,21,
"2,6-difluorobenzoic acid",C7H4F2O2,000385-00-2,OC(=O)c1c(F)cccc1F,"sotomatsu,t et al. (1993) ",1.59,7,4,0,2,0,0,2,0,0,0,,11,
"1-ethyl-7-methyl-4-oxo-1,8-naphthyridine-3-carboxylic acid",C12H12N2O3,000389-08-2,CCN1C=C(C(O)=O)C(=O)c2ccc(C)nc12,biobyte (1995) ,1.59,12,12,2,3,0,0,0,0,0,0,,17,
"1,2,3,4,5,6-hexafluorobenzene",C6F6,000392-56-3,Fc1c(F)c(F)c(F)c(F)c1F,"hansch,c et al. (1995) ",2.55,6,0,0,0,0,0,6,0,0,0,,12,
"1,3-dino2 2-cl 5-cf3 benzene",C7H2Cl1F3N2O4,000393-75-9,N(=O)(=O)c1c(Cl)c(N(=O)(=O))cc(C(F)(F)F)c1,"nakagawa,y et al. (1992) ",2.5,7,2,2,4,0,0,3,1,0,0,,17,
methyl 2-fluorobenzoate,C8H7F1O2,000394-35-4,COC(=O)c1ccccc1F,"sotomatsu,t et al. (1993) ",1.82,8,7,0,2,0,0,1,0,0,0,,11,
8-fluoroquinoline,C9H6F1N1,000394-68-3,Fc1cccc2cccnc12,"hansch,c et al. (1995) ",2.19,9,6,1,0,0,0,1,0,0,0,,11,
2-fluoro-3-chloroacetanilide,C8H7Cl1F1N1O1,000395-36-8,Clc1cccc(NC(=O)(C))c1F,"nakagawa,y et al. (1992) ",1.83,8,7,1,1,0,0,1,1,0,0,,12,
"6-phenylpteridine-2,4,7-triamine",C12H11N7,000396-01-0,Nc1nc(N)c2nc(c3ccccc3)c(N)nc2n1,"hansch,c et al. (1995) ",0.98,12,11,7,0,0,0,0,0,0,0,,19,
n-(2-fluorophenyl)acetamide,C8H8F1N1O1,000399-31-5,CC(=O)Nc1ccccc1F,"nakagawa,y et al. (1992) ",1.03,8,8,1,1,0,0,1,0,0,0,,11,
2-nitro-4-(trifluoromethyl)phenol,C7H4F3N1O3,000400-99-7,Oc1ccc(cc1[N+]([O-])=O)C(F)(F)F,"schwarzenbach,rp et al. (1988) ",2.34,7,4,1,3,0,0,3,0,0,0,,14,
"1,3-bis(trifluoromethyl)benzene",C8H4F6,000402-31-3,FC(F)(F)c1cccc(c1)C(F)(F)F,"hansch,c et al. (1995) ",3.83,8,4,0,0,0,0,6,0,0,0,,14,
n-methyl-n-[3-(trifluoromethyl)phenyl]diazenylmethanamine,C9H10F3N3,000402-38-0,CN(C)N=Nc1cccc(c1)C(F)(F)F,"hansch,c et al. (1995) ",3.78,9,10,3,0,0,0,3,0,0,0,,15,
4-(trifluoromethyl)phenol,C7H5F3O1,000402-45-9,Oc1ccc(cc1)C(F)(F)F,"hansch,c et al. (1995) ",2.82,7,5,0,1,0,0,3,0,0,0,,11,
1-nitro-4-(trifluoromethyl)benzene,C7H4F3N1O2,000402-54-0,[O-][N+](=O)c1ccc(cc1)C(F)(F)F,pomona (1987) ,2.55,7,4,1,2,0,0,3,0,0,0,,13,
1-fluoro-3-nitrobenzene,C6H4F1N1O2,000402-67-5,[O-][N+](=O)c1cccc(F)c1,"hansch,c et al. (1995) ",1.9,6,4,1,2,0,0,1,0,0,0,,10,
methyl 4-fluorobenzoate,C8H7F1O2,000403-33-8,COC(=O)c1ccc(F)cc1,"sotomatsu,t et al. (1993) ",2.28,8,7,0,2,0,0,1,0,0,0,,11,
1-(4-fluorophenyl)ethanone,C8H7F1O1,000403-42-9,CC(=O)c1ccc(F)cc1,"hansch,c et al. (1995) ",1.72,8,7,0,1,0,0,1,0,0,0,,10,
3-fluorobenzonitrile,C7H4F1N1,000403-54-3,Fc1cccc(c1)C#N,"hansch,c et al. (1995) ",1.47,7,4,1,0,0,0,1,0,0,0,,9,
"2,2,2-trifluoro-n-phenylacetamide",C8H6F3N1O1,000404-24-0,FC(F)(F)C(=O)Nc1ccccc1,"hansch,c et al. (1995) ",2.21,8,6,1,1,0,0,3,0,0,0,,13,
2-(3-fluorophenoxy)acetic acid,C8H7F1O3,000404-98-8,OC(=O)COc1cccc(F)c1,"hansch,c et al. (1995) ",1.48,8,7,0,3,0,0,1,0,0,0,,12,
2-(4-fluorophenyl)acetic acid,C8H7F1O2,000405-50-5,OC(=O)Cc1ccc(F)cc1,"hansch,c et al. (1995) ",1.55,8,7,0,2,0,0,1,0,0,0,,11,
2-(4-fluorophenoxy)acetic acid,C8H7F1O3,000405-79-8,OC(=O)COc1ccc(F)cc1,"hansch,c et al. (1995) ",1.64,8,7,0,3,0,0,1,0,0,0,,12,
cyanamide,C1H2N2,000420-04-2,NC#N,"tomlin,c (1994) ",-0.82,1,2,2,0,0,0,0,0,0,0,,3,
"1,1,1-trifluoropropan-2-one",C3H3F3O1,000421-50-1,CC(=O)C(F)(F)F,"hansch,c et al. (1995) ",0.2,3,3,0,1,0,0,3,0,0,0,,7,
"2,2,3,3,3-pentafluoropropan-1-ol",C3H3F5O1,000422-05-9,OCC(F)(F)C(F)(F)F,"hansch,c et al. (1995) ",1.23,3,3,0,1,0,0,5,0,0,0,,9,
"(1,1,2,2-tetrafluoro-2-phenylethyl)benzene",C14H10F4,000425-32-1,FC(F)(c1ccccc1)C(F)(F)c2ccccc2,sangster (1993) ,5,14,10,0,0,0,0,4,0,0,0,,18,
"17-acetyl-9-fluoro-11,17-dihydroxy-6,10,13-trimethyl-6,7,8,11,12,14,15,16-octahydrocyclopenta[a]phenanthren-3-one",C22H29F1O4,000426-13-1,CC1CC2C3CCC(O)(C(C)=O)C3(C)CC(O)C2(F)C4(C)C=CC(=O)C=C14,"hansch,c et al. (1995) ",2,22,29,0,4,0,0,1,0,0,0,,27,
trifluoromethylsulfonylbenzene,C7H5F3O2S1,not,FC(F)(F)[S](=O)(=O)c1ccccc1,pomona (1987) ,2.69,7,5,0,2,1,0,3,0,0,0,,13,
"ethyl 2,2,3,3,3-pentafluoropropanoate",C5H5F5O2,000426-65-3,CCOC(=O)C(F)(F)C(F)(F)F,"hansch,c et al. (1995) ",2.12,5,5,0,2,0,0,5,0,0,0,,12,
1-fluoropropan-2-one,C3H5F1O1,000430-51-3,CC(=O)CF,"hansch,c et al. (1995) ",-0.39,3,5,0,1,0,0,1,0,0,0,,5,