Names,Formula,CAS No,SMILES,Reference,Exp logp,C,H,N,O,S,P,F,Cl,Br,I,,,
3-chloro-4-methoxyaniline,C7H8Cl1N1O1,005345-54-0,COc1ccc(N)cc1Cl,"hansch,c et al. (1995) ",1.85,7,8,1,1,0,0,0,1,0,0,,10,
pyridine-2-carbothioamide,C6H6N2S1,005346-38-3,NC(=S)c1ccccn1,"hansch,c et al. (1995) ",1.24,6,6,2,0,1,0,0,0,0,0,,9,
"4,5-dichloro-o-phenylenediamine",C6H6Cl2N2,005348-42-5,Nc1cc(Cl)c(Cl)cc1N,"hansch,c et al. (1995) ",2,6,6,2,0,0,0,0,2,0,0,,10,
2-(2-phenylphenoxy)acetic acid,C14H12O3,005348-75-4,OC(=O)COc1ccccc1c2ccccc2,"hansch,c & leo,aj (1985) ",2.83,14,12,0,3,0,0,0,0,0,0,,17,
4-aminobenzohydrazide,C7H9N3O1,005351-17-7,NNC(=O)c1ccc(N)cc1,"hansch,c & leo,aj (1985) ",-0.75,7,9,3,1,0,0,0,0,0,0,,11,
4-hydroxybenzohydrazide,C7H8N2O2,005351-23-5,NNC(=O)c1ccc(O)cc1,"hansch,c & leo,aj (1985) ",-0.33,7,8,2,2,0,0,0,0,0,0,,11,
"5-[(3,4-dimethoxyphenyl)methyl]pyrimidine-2,4-diamine",C13H16N4O2,005355-16-8,COc1ccc(Cc2cnc(N)nc2N)cc1OC,"hansch,c & leo,aj (1985) ",0.97,13,16,4,2,0,0,0,0,0,0,,19,
"1,4-benzdazepin-2-on-1-me-5-(2me-ph)7-cl",C17H15Cl1N2O1,005358-34-9,Cc1c(C2=NCC(=O)N(C)c3c2cc(Cl)cc3)cccc1,"hansch,c & leo,aj (1985) ",3.03,17,15,2,1,0,0,0,1,0,0,,21,
"1,4-benzodiazp2-on,5(omeph)7cl",C16H13Cl1N2O1,005358-35-0,Clc1ccc2c(C(c3ccccc3C)=NCC(=O)N2)c1,"hansch,c & leo,aj (1985) ",3.12,16,13,2,1,0,0,0,1,0,0,,20,
2-butylaminobenzamide,C11H16N2O1,005363-33-7,CCCCNc1ccccc1C(N)=O,"hansch,c & leo,aj (1985) ",2.33,11,16,2,1,0,0,0,0,0,0,,14,
1-phenyltetrazole,C7H6N4,005378-52-9,c1ccc(cc1)n2cnnn2,"hansch,c et al. (1995) ",1.09,7,6,4,0,0,0,0,0,0,0,,11,
methyl thiophene-2-carboxylate,C6H6O2S1,005380-42-7,COC(=O)c1sccc1,"yamagami,c & masaki,y (1995) ",1.83,6,6,0,2,1,0,0,0,0,0,,9,
quinoline-6-carbohydrazide,C10H9N3O1,005382-47-8,NNC(=O)c1ccc2ncccc2c1,"hansch,c & leo,aj (1985) ",0.35,10,9,3,1,0,0,0,0,0,0,,14,
3-phenyl-3h-2-benzofuran-1-one,C14H10O2,005398-11-8,O=C1OC(c2ccccc2)c3ccccc13,"hansch,c et al. (1995) ",2.64,14,10,0,2,0,0,0,0,0,0,,16,
"indazole,6-nitro",C7H5N3O2,007597-18-4,C1=CC2=C(C=C1[N+](=O)[O-])C=NN2,biobyte starlist (2009) ,2.06,7,5,3,2,0,0,0,0,0,0,,12,
"2,7-dinitro-9h-fluorene",C13H8N2O4,005405-53-8,[O-][N+](=O)c1ccc2c(Cc3cc(ccc23)[N+]([O-])=O)c1,"debnath,ak & hansch,c (1992) ",3.35,13,8,2,4,0,0,0,0,0,0,,19,
p-chlorobenzyl acetate,C9H9Cl1O2,005406-33-7,CC(=O)OCc1ccc(Cl)cc1,"hansch,c et al. (1995) ",2.59,9,9,0,2,0,0,0,1,0,0,,12,
1-phenyl-2-pyrrolidin-1-ylethanol,C12H17N1O1,005407-61-4,OC(CN1CCCC1)c2ccccc2,"hansch,c & leo,aj (1985) ",1.38,12,17,1,1,0,0,0,0,0,0,,14,
"2-methoxy-3-methylnaphthalene-1,4-dione",C12H10O3,005416-18-2,COC1=C(C)C(=O)c2ccccc2C1=O,"hansch,c & leo,aj (1985) ",2.14,12,10,0,3,0,0,0,0,0,0,,15,
n-quinolin-3-ylacetamide,C11H10N2O1,005417-50-5,CC(=O)Nc1cnc2ccccc2c1,"hansch,c & leo,aj (1985) ",1.92,11,10,2,1,0,0,0,0,0,0,,14,
"1h-benzimidazol-2-amine, 5-chloro-",C7H6Cl1N3,005418-93-9,Nc1[nH]c2ccc(Cl)cc2n1,"hansch,c et al. (1995) ",1.88,7,6,3,0,0,0,0,1,0,0,,11,
quinoxalin-2-amine,C8H7N3,005424-05-5,Nc1cnc2ccccc2n1,"hansch,c & leo,aj (1985) ",1.5,8,7,3,0,0,0,0,0,0,0,,11,
phenyl-pyridin-3-ylmethanone,C12H9N1O1,005424-19-1,O=C(c1ccccc1)c2cccnc2,"hansch,c et al. (1995) ",1.88,12,9,1,1,0,0,0,0,0,0,,14,
2-methyl-5-nitrophenol,C7H7N1O3,005428-54-6,Cc1ccc(cc1O)[N+]([O-])=O,chemicals inspection and testing institu (1992) ,2.47,7,7,1,3,0,0,0,0,0,0,,11,
n-(4-methylphenyl)-2-piperidin-1-ylacetamide,C14H20N2O1,005429-42-5,Cc1ccc(NC(=O)CN2CCCCC2)cc1,"hansch,c & leo,aj (1985) ",2.96,14,20,2,1,0,0,0,0,0,0,,17,
n-cyclohexyl-n-methylnitrous amide,C7H14N2O1,005432-28-0,CN(N=O)C1CCCCC1,"hansch,c & leo,aj (1985) ",1.43,7,14,2,1,0,0,0,0,0,0,,10,
"3-buten-2-one,4-(4-dimethylaminophenyl)-",C12H15N1O1,005432-53-1,CC(=O)C=Cc1ccc(N(C)C)cc1,"yamagami,c et al. (1998) ",2.66,12,15,1,1,0,0,0,0,0,0,,14,
4-propoxybenzoic acid,C10H12O3,005438-19-7,CCCOc1ccc(cc1)C(O)=O,"da,yz et al. (1992) ",3.09,10,12,0,3,0,0,0,0,0,0,,13,
ethyl 4-sulfamoylbenzoate,C9H11N1O4S1,005446-77-5,CCOC(=O)c1ccc(cc1)[S](N)(=O)=O,sangster (1993) ,1.17,9,11,1,4,1,0,0,0,0,0,,15,
2-methoxy-5-nitropyridine,C6H6N2O3,005446-92-4,COc1ccc(cn1)[N+]([O-])=O,"hansch,c et al. (1995) ",1.55,6,6,2,3,0,0,0,0,0,0,,11,
2-(1-phenylethylidene)propanedinitrile,C11H8N2,005447-87-0,CC(c1ccccc1)=C(C#N)C#N,"hansch,c et al. (1995) ",2.1,11,8,2,0,0,0,0,0,0,0,,13,
"3-methyl-n,n-di(propan-2-yl)benzamide",C14H21N1O1,005448-36-2,CC(C)N(C(C)C)C(=O)c1cccc(C)c1,"suryanarayana,mvs et al. (1991) ",3,14,21,1,1,0,0,0,0,0,0,,16,
6-chloroquinoxaline,C8H5Cl1N2,005448-43-1,Clc1ccc2nccnc2c1,"hansch,c et al. (1995) ",2.1,8,5,2,0,0,0,0,1,0,0,,11,
pyridazine-3-carboxamide,C5H5N3O1,005450-54-4,NC(=O)c1cccnn1,"yamagami,c et al. (1990) ",-0.73,5,5,3,1,0,0,0,0,0,0,,9,
2-pyridin-2-ylacetamide,C7H8N2O1,005451-39-8,NC(=O)Cc1ccccn1,"hansch,c et al. (1995) ",-0.65,7,8,2,1,0,0,0,0,0,0,,10,
(3-methoxyphenyl) acetate,C9H10O3,005451-83-2,COc1cccc(OC(C)=O)c1,"sotomatsu,t et al. (1993) ",1.61,9,10,0,3,0,0,0,0,0,0,,12,
1h-indole-3-carbonitrile,C9H6N2,005457-28-3,N#Cc1c[nH]c2ccccc12,"hansch,c et al. (1995) ",2.32,9,6,2,0,0,0,0,0,0,0,,11,
n-propyl-4-sulfamoylbenzamide,C10H14N2O3S1,005462-24-8,CCCNC(=O)c1ccc(cc1)[S](N)(=O)=O,"hansch,c et al. (1995) ",0.51,10,14,2,3,1,0,0,0,0,0,,16,
n-ethyl-2-phenylacetamide,C10H13N1O1,005465-00-9,CCNC(=O)Cc1ccccc1,"suryanarayana,mvs et al. (1991) ",1,10,13,1,1,0,0,0,0,0,0,,12,
1-phenyltetrazol-5-amine,C7H7N5,005467-78-7,Nc1nnnn1c2ccccc2,biobyte starlist (2009) ,0.69,7,7,5,0,0,0,0,0,0,0,,12,
3-cl-6-pyridazinamine,C4H4Cl1N3,005469-69-2,c1(N)nnc(Cl)cc1,"hansch,c et al. (1995) ",0.35,4,4,3,0,0,0,0,1,0,0,,8,
pyrimidin-2-amine,C4H5N3,005469-70-5,Nc1ncccn1,"hansch,c et al. (1995) ",-0.22,4,5,3,0,0,0,0,0,0,0,,7,
n-(4-methoxyphenyl)formamide,C8H9N1O2,005470-34-8,COc1ccc(NC=O)cc1,"hansch,c et al. (1995) ",1.03,8,9,1,2,0,0,0,0,0,0,,11,
4-methylsulfonylaniline,C7H9N1O2S1,005470-49-5,C[S](=O)(=O)c1ccc(N)cc1,"hansch,c et al. (1995) ",-0.12,7,9,1,2,1,0,0,0,0,0,,11,
quinoline-2-carbaldehyde,C10H7N1O1,005470-96-2,O=Cc1ccc2ccccc2n1,"hansch,c et al. (1995) ",2.14,10,7,1,1,0,0,0,0,0,0,,12,
(2-methylphenyl)-phenylmethanol,C14H14O1,005472-13-9,Cc1ccccc1C(O)c2ccccc2,"hansch,c et al. (1995) ",3.06,14,14,0,1,0,0,0,0,0,0,,15,
"(1,3-dioxoisoindol-2-yl)methyl acetate",C11H9N1O4,005493-24-3,CC(=O)OCN1C(=O)c2ccccc2C1=O,"nishimura,k et al. (1988) ",1.15,11,9,1,4,0,0,0,0,0,0,,16,
cyclopropanecarbonitrile,C4H5N1,005500-21-0,N#CC1CC1,"hansch,c et al. (1995) ",0.68,4,5,1,0,0,0,0,0,0,0,,5,
"2,6-di(butan-2-yl)phenol",C14H22O1,005510-99-6,CCC(C)c1cccc(C(C)CC)c1O,"hansch,c et al. (1995) ",4.36,14,22,0,1,0,0,0,0,0,0,,15,
4-decoxybenzoic acid,C17H26O3,005519-23-3,CCCCCCCCCCOc1ccc(cc1)C(O)=O,sangster (1993) ,6.29,17,26,0,3,0,0,0,0,0,0,,20,
"pyrazinamine, 6-methyl-",C5H7N3,005521-56-2,Cc1cncc(N)n1,"yamagami,c et al. (1991) ",0.35,5,7,3,0,0,0,0,0,0,0,,8,
5-methylpyrazine-2-carboxamide,C6H7N3O1,005521-57-3,Cc1cnc(cn1)C(N)=O,"yamagami,c et al. (1991) ",-0.25,6,7,3,1,0,0,0,0,0,0,,10,
6-methylpyrazine-2-carboxamide,C6H7N3O1,005521-62-0,Cc1cncc(n1)C(N)=O,"yamagami,c et al. (1991) ",-0.13,6,7,3,1,0,0,0,0,0,0,,10,
1-nitropyrene,C16H9N1O2,005522-43-0,[O-][N+](=O)c1ccc2ccc3cccc4ccc1c2c34,biobyte (1995) ,5.06,16,9,1,2,0,0,0,0,0,0,,19,
propyl n-phenylcarbamate,C10H13N1O2,005532-90-1,CCCOC(=O)Nc1ccccc1,"briggs,gg (1981) ",2.8,10,13,1,2,0,0,0,0,0,0,,13,
5-methylquinolin-8-ol,C10H9N1O1,005541-67-3,Cc1ccc(O)c2ncccc12,"hansch,c et al. (1995) ",2.37,10,9,1,1,0,0,0,0,0,0,,12,
"2,2-di(phenyl)propanoic acid",C15H14O2,005558-66-7,CC(C(O)=O)(c1ccccc1)c2ccccc2,"hansch,c et al. (1995) ",2.69,15,14,0,2,0,0,0,0,0,0,,17,
"7-methyl-5-phenyl-1,3-dihydro-1,4-benzodiazepin-2-one",C16H14N2O1,005571-63-1,Cc1ccc2NC(=O)CN=C(c3ccccc3)c2c1,sangster (1993) ,2.62,16,14,2,1,0,0,0,0,0,0,,19,
"1,4-benzodiazp2-on,1-et-5-ph-7cl",C17H15Cl1N2O1,005571-65-3,CCN1C(=O)CN=C(c3ccccc3)c2c1ccc(Cl)c2,"hansch,c & leo,aj (1985) ",3.21,17,15,2,1,0,0,0,1,0,0,,21,
6-phenylhexanoic acid,C12H16O2,005581-75-9,OC(=O)CCCCCc1ccccc1,"hansch,c et al. (1995) ",3.27,12,16,0,2,0,0,0,0,0,0,,14,
"betamethasone 17,21-dipropionate",C28H37F1O7,005593-20-4,CCC(=O)OCC(=O)[C@@]1(OC(=O)CC)[C@@H](C)C[C@H]2[C@@H]3CCC4=CC(=O)C=C[C@]4(C)[C@@]3(F)[C@@H](O)C[C@]12C,"hansch,c et al. (1995) ",4.07,28,37,0,7,0,0,1,0,0,0,,36,
n-(6-methylpyrazin-2-yl)acetamide,C7H9N3O1,005594-16-1,CC(=O)Nc1cncc(C)n1,"yamagami,c et al. (1991) ",0.38,7,9,3,1,0,0,0,0,0,0,,11,
chlorpyrifos methyl,C7H7Cl3N1O3P1S1,005598-13-0,CO[P](=S)(OC)Oc1nc(Cl)c(Cl)cc1Cl,"hansch,c et al. (1995) ",4.31,7,7,1,3,1,1,0,3,0,0,,16,
methyl n-(4-methylphenyl)carbamate,C9H11N1O2,005602-96-0,COC(=O)Nc1ccc(C)cc1,"takahashi,k et al. (1988) ",2.29,9,11,1,2,0,0,0,0,0,0,,12,
"n,n-dimethylpyrimidin-2-amine",C6H9N3,005621-02-3,CN(C)c1ncccn1,"yamagami,c et al. (1990) ",1.07,6,9,3,0,0,0,0,0,0,0,,9,
1-nitrosopiperazine,C4H9N3O1,005632-47-3,O=NN1CCNCC1,"hansch,c et al. (1995) ",0.18,4,9,3,1,0,0,0,0,0,0,,8,
n-methyl-2-pyridin-2-ylethanamine,C8H12N2,005638-76-6,CNCCc1ccccn1,"young,rc et al. (1993) ",0.68,8,12,2,0,0,0,0,0,0,0,,10,
"1,1,3-tri(phenyl)urea",C19H16N2O1,005663-04-7,O=C(Nc1ccccc1)N(c2ccccc2)c3ccccc3,"hansch,c et al. (1995) ",3.28,19,16,2,1,0,0,0,0,0,0,,22,
n-(benzoyl)-2-hydroxybenzamide,C14H11N1O3,005663-74-1,Oc1ccccc1C(=O)NC(=O)c2ccccc2,"hansch,c et al. (1995) ",1.38,14,11,1,3,0,0,0,0,0,0,,18,
"1,3-dimethoxy-2-methyl-benzene",C9H12O2,005673-07-4,COc1cccc(OC)c1C,"nakagawa,y et al. (1992) ",2.87,9,12,0,2,0,0,0,0,0,0,,11,
1-butyl-3-hydroxyurea,C5H12N2O2,005681-57-2,CCCCNC(=O)NO,"hansch,c et al. (1995) ",0.32,5,12,2,2,0,0,0,0,0,0,,9,
"n,n-dimethylpyridin-2-amine",C7H10N2,005683-33-0,CN(C)c1ccccn1,"yamagami,c et al. (1990a) ",1.65,7,10,2,0,0,0,0,0,0,0,,9,
n-(4-aminobutyl)benzamide,C11H16N2O1,005692-23-9,NCCCCNC(=O)c1ccccc1,"hansch,c et al. (1995) ",0.58,11,16,2,1,0,0,0,0,0,0,,14,
1-ethyl-3-hydroxyurea,C3H8N2O2,005710-11-2,CCNC(=O)NO,"hansch,c et al. (1995) ",-0.76,3,8,2,2,0,0,0,0,0,0,,7,
3-hydroxy-1-propylurea,C4H10N2O2,005710-12-3,CCCNC(=O)NO,"hansch,c et al. (1995) ",-0.22,4,10,2,2,0,0,0,0,0,0,,8,
(2-cyanophenyl) acetate,C9H7N1O2,005715-02-6,CC(=O)Oc1ccccc1C#N,"hansch,c et al. (1995) ",1.33,9,7,1,2,0,0,0,0,0,0,,12,
"n,n-dimethylhydroxylamine",C2H7N1O1,005725-96-2,CN(C)O,"hansch,c et al. (1995) ",-1.15,2,7,1,1,0,0,0,0,0,0,,4,
"1,2,5-thiadiazole, 3,4-dimethyl-",C4H6N2S1,005728-21-2,Cc1nsnc1C,"calvino,r et al. (1992) ",1.28,4,6,2,0,1,0,0,0,0,0,,7,
"2-propenoic acid, 3-phenoxy-, methyl ester, (e)-",C10H10O3,005739-82-2,COC(=O)/C=C/Oc1ccccc1,sangster (1993) ,2.68,10,10,0,3,0,0,0,0,0,0,,13,
1-(2-methoxyphenoxy)-3-(propan-2-ylamino)propan-2-ol,C13H21N1O3,005741-22-0,COc1ccccc1OCC(O)CNC(C)C,"recanatini,m (1992) ",1.69,13,21,1,3,0,0,0,0,0,0,,17,
ethyl thiophene-3-carboxylate,C7H8O2S1,005751-80-4,CCOC(=O)c1cscc1,"yamagami,c & masaki,y (1995) ",2.32,7,8,0,2,1,0,0,0,0,0,,10,
"5-methyl-1,2-oxazole",C4H5N1O1,005765-44-6,Cc1oncc1,"hansch,c et al. (1995) ",0.45,4,5,1,1,0,0,0,0,0,0,,6,
"benzoylhydrazine, m-methoxy",C8H10N2O2,005785-06-8,O(C)c1cccc(C(=O)NN)c1,"hansch,c et al. (1995) ",0.4,8,10,2,2,0,0,0,0,0,0,,12,
clozapine,C18H19Cl1N4,005786-21-0,CN1CCN(CC1)C2=C3C=CC=CC3=Nc4ccc(Cl)cc4N2,"hansch,c et al. (1995) ",3.23,18,19,4,0,0,0,0,1,0,0,,23,
"6,6-dimethyl-5-methylidenebicyclo[2.2.1]heptane",C10H16,005794-03-6,CC1(C)C2CCC(C2)C1=C,"griffin,s et al. (1999) ",4.22,10,16,0,0,0,0,0,0,0,0,,10,
3-methoxybenzamide,C8H9N1O2,005813-86-5,COc1cccc(c1)C(N)=O,"hansch,c et al. (1995) ",0.85,8,9,1,2,0,0,0,0,0,0,,11,
thiophene-2-carboxamide,C5H5N1O1S1,005813-89-8,NC(=O)c1sccc1,"hansch,c & leo,aj (1985) ",0.52,5,5,1,1,1,0,0,0,0,0,,8,
"benzoylhydrazine, o-chloro",C7H7Cl1N2O1,005814-05-1,Clc1ccccc1C(=O)NN,"hansch,c et al. (1995) ",0.14,7,7,2,1,0,0,0,1,0,0,,11,
3-hydroxybenzohydrazide,C7H8N2O2,005818-06-4,NNC(=O)c1cccc(O)c1,"hansch,c et al. (1995) ",-0.08,7,8,2,2,0,0,0,0,0,0,,11,
"2-cyclohexyl-n,n-dimethylacetamide",C10H19N1O1,005830-33-1,CN(C)C(=O)CC1CCCCC1,"suryanarayana,mvs et al. (1991) ",2.19,10,19,1,1,0,0,0,0,0,0,,12,
"5-benzyl-2,4-oxazolidione",C10H9N1O3,005841-62-3,O2C(=O)NC(=O)C2Cc1ccccc1,"lipinski,ca et al. (1991) ",1.2,10,9,1,3,0,0,0,0,0,0,,14,
"3-methyl-5-phenyl-1,3-oxazolidine-2,4-dione",C10H9N1O3,005841-66-7,CN1C(=O)OC(C1=O)c2ccccc2,"hansch,c & leo,aj (1985) ",1.06,10,9,1,3,0,0,0,0,0,0,,14,
n-pyridin-3-ylacetamide,C7H8N2O1,005867-45-8,CC(=O)Nc1cccnc1,"hansch,c et al. (1995) ",0.41,7,8,2,1,0,0,0,0,0,0,,10,
2-[3-bromo-4-(phenylmethoxy)phenyl]acetic acid,C15H13Br1O3,005884-48-0,OC(=O)Cc1ccc(OCc2ccccc2)c(Br)c1,"hansch,c & leo,aj (1985) ",3.51,15,13,0,3,0,0,0,0,1,0,,19,
"bicyclo[2.2.1]heptane-6,7-diol",C7H12O2,005888-34-6,OC1CC2CCC1C2O,"lodge,kb (1999) ",0.4,7,12,0,2,0,0,0,0,0,0,,9,
5-chloro-2-methylacetanilide,C9H10Cl1N1O1,005900-55-0,CC(=O)Nc1cc(Cl)ccc1C,"nakagawa,y et al. (1992) ",1.82,9,10,1,1,0,0,0,1,0,0,,12,
"2,3-dimethylpyrazine",C6H8N2,005910-89-4,Cc1nccnc1C,"yamagami,c et al. (1991) ",0.54,6,8,2,0,0,0,0,0,0,0,,8,
terbuthylazine,C9H16Cl1N5,005915-41-3,CCNc1nc(Cl)nc(NC(C)(C)C)n1,"tomlin,c (1997) ",3.21,9,16,5,0,0,0,0,1,0,0,,15,
4-bromobenzohydrazide,C7H7Br1N2O1,005933-32-4,NNC(=O)c1ccc(Br)cc1,"hansch,c & leo,aj (1985) ",1.28,7,7,2,1,0,0,0,0,1,0,,11,
5944-41-2,C9H13N1,005944-41-2,CC(C)(C)c1ccccn1,"hansch,c et al. (1995) ",2.4,9,13,1,0,0,0,0,0,0,0,,10,
"9-hydroxy-5,8a-dimethyl-1-methylidene-3a,4,5,5a,9,9a-hexahydroazuleno[7,6-d]furan-2,8-dione",C15H18O4,006754-13-8,CC1CC2OC(=O)C(=C)C2C(O)C3(C)C1C=CC3=O,"hansch,c et al. (1995) ",0.87,15,18,0,4,0,0,0,0,0,0,,19,
"5,8a-dimethyl-1-methylidene-3a,4,5,5a,9,9a-hexahydroazuleno[7,6-d]furan-2,8-dione",C15H18O3,005945-42-6,CC1CC2OC(=O)C(=C)C2CC3(C)C1C=CC3=O,"hansch,c et al. (1995) ",1.17,15,18,0,3,0,0,0,0,0,0,,18,
"6,6,9-trimethyl-3-pentyl-6a,7,10,10a-tetrahydrobenzo[c]chromen-1-ol",C21H30O2,005957-75-5,CCCCCc1cc(O)c2C3CC(=CCC3C(C)(C)Oc2c1)C,sangster (1993) ,7.41,21,30,0,2,0,0,0,0,0,0,,23,
"1-[5-(hydroxymethyl)-2,5-dihydrofuran-2-yl]pyrimidine-2,4-dione",C9H10N2O4,005974-93-6,OCC1OC(C=C1)N2C=CC(=O)NC2=O,"balzarini,jm et al. (1989) ",-1.07,9,10,2,4,0,0,0,0,0,0,,15,
5-pyridin-3-ylpyrrolidin-2-one,C9H10N2O1,005980-06-3,O=C1CCC(N1)c2cccnc2,"li,ny & gorrod,jw (1992) ",-0.3,9,10,2,1,0,0,0,0,0,0,,12,
"1-[5-(hydroxymethyl)-2,5-dihydrofuran-2-yl]-5-methyl-4-sulfanylidenepyrimidin-2-one",C10H12N2O3S1,005983-08-4,CC1=CN(C2OC(CO)C=C2)C(=O)NC1=S,"palomino,e et al. (1990) ",0.09,10,12,2,3,1,0,0,0,0,0,,16,
"1-[5-(hydroxymethyl)oxolan-2-yl]pyrimidine-2,4-dione",C9H12N2O4,069400-58-4,OCC1CCC(O1)N2C=CC(=O)NC2=O,biobyte starlist (2009) ,-1,9,12,2,4,0,0,0,0,0,0,,15,
4-pyridin-3-ylbutan-1-amine,C9H14N2,006021-23-4,NCCCCc1cccnc1,"hansch,c et al. (1995) ",0.88,9,14,2,0,0,0,0,0,0,0,,11,
pentan-2-ol,C5H12O1,006032-29-7,CCCC(C)O,"hansch,c et al. (1995) ",1.19,5,12,0,1,0,0,0,0,0,0,,6,
"2-(hydroxymethyl)-6-(4-methoxyphenoxy)oxane-3,4,5-triol",C13H18O7,006032-32-2,COc1ccc(OC2OC(CO)C(O)C(O)C2O)cc1,"hansch,c & leo,aj (1985) ",-0.73,13,18,0,7,0,0,0,0,0,0,,20,
"2-(hydroxymethyl)-6-naphthalen-2-yloxyoxane-3,4,5-triol",C16H18O6,006044-30-0,OCC1OC(Oc2ccc3ccccc3c2)C(O)C(O)C1O,"hansch,c & leo,aj (1985) ",0.76,16,18,0,6,0,0,0,0,0,0,,22,
"3-buten-2-one,4-(2-hydroxyphenyl)-",C10H10O2,006051-53-2,CC(=O)C=Cc1ccccc1O,"yamagami,c et al. (1998) ",2.19,10,10,0,2,0,0,0,0,0,0,,12,
"4-quinolinamine, 7-chloro-n-(4-methoxyphenyl)-",C16H13Cl1N2O1,006059-31-0,COc1ccc(Nc2ccnc3cc(Cl)ccc23)cc1,"go,ml et al. (1995) ",4.94,16,13,2,1,0,0,0,1,0,0,,20,
2-hydroxyhexanoic acid,C6H12O3,006064-63-7,CCCCC(O)C(O)=O,sangster (1993) ,0.81,6,12,0,3,0,0,0,0,0,0,,9,
3-butyl-3h-2-benzofuran-1-one,C12H14O2,093133-67-6,CCCCC1OC(=O)c2ccccc12,pomona (1987) ,2.8,12,14,0,2,0,0,0,0,0,0,,14,
4-dimethylaminobenzamide,C9H12N2O1,006083-47-2,CN(C)c1ccc(cc1)C(N)=O,"hansch,c & leo,aj (1985) ",1.14,9,12,2,1,0,0,0,0,0,0,,12,
"1-(phenylmethyl)-1,2,4-triazole",C9H9N3,006085-94-5,C(n1cncn1)c2ccccc2,"patil,sg et al. (1988) ",0.92,9,9,3,0,0,0,0,0,0,0,,12,
2-methylphthalazin-1-one,C9H8N2O1,006091-81-2,CN1N=Cc2ccccc2C1=O,"hansch,c & leo,aj (1985) ",0.61,9,8,2,1,0,0,0,0,0,0,,12,
"2-(hydroxymethyl)-6-(2-methoxyphenoxy)oxane-3,4,5-triol",C13H18O7,006092-24-6,COc1ccccc1OC2OC(CO)C(O)C(O)C2O,"hansch,c & leo,aj (1985) ",-1.04,13,18,0,7,0,0,0,0,0,0,,20,
"2-(hydroxymethyl)-6-(3-methylphenoxy)oxane-3,4,5-triol",C13H18O6,006092-25-7,Cc1cccc(OC2OC(CO)C(O)C(O)C2O)c1,"hansch,c & leo,aj (1985) ",-0.2,13,18,0,6,0,0,0,0,0,0,,19,
4-methoxypyrimidine,C5H6N2O1,006104-41-2,COc1ccncn1,"yamagami,c et al. (1990) ",0.54,5,6,2,1,0,0,0,0,0,0,,8,
n-(3-aminopropyl)benzamide,C10H14N2O1,006108-74-3,NCCCNC(=O)c1ccccc1,"hansch,c et al. (1995) ",0.3,10,14,2,1,0,0,0,0,0,0,,13,
"5,6,7,8-tetrahydro-4h-cyclohepta[d]dithiole-3-thione",C8H10S3,006125-89-9,S=C1SSC2=C1CCCCC2,"bona,m et al. (1995) ",3.27,8,10,0,0,3,0,0,0,0,0,,11,
"4-ethyl-5-methyl-1,2-dithiole-3-thione",C6H8S3,055486-68-5,CCC1=C(C)SSC1=S,"bona,m et al. (1995) ",2.94,6,8,0,0,3,0,0,0,0,0,,9,
"6,8-diazaspiro[3.5]nonane-5,7,9-trione",C7H8N2O3,006128-03-6,O=C1NC(=O)C2(CCC2)C(=O)N1,"prankerd,rj & mckeown,rh (1992) ",-0.27,7,8,2,3,0,0,0,0,0,0,,12,
"2,4,5-trichloroanisole",C7H5Cl3O1,006130-75-2,COc1cc(Cl)c(Cl)cc1Cl,"opperhuizen,a & voors,pi (1987) ",3.85,7,5,0,1,0,0,0,3,0,0,,11,
"2,2,6,6-tetramethyl-1-nitrosopiperidine",C9H18N2O1,006130-93-4,CC1(C)CCCC(C)(C)N1N=O,"hansch,c & leo,aj (1985) ",2.49,9,18,2,1,0,0,0,0,0,0,,12,
(3-nitrophenyl) n-methylcarbamate,C8H8N2O4,006132-21-4,CNC(=O)Oc1cccc(c1)[N+]([O-])=O,"hansch,c & leo,aj (1985) ",1.39,8,8,2,4,0,0,0,0,0,0,,14,
1-methylxanthine,C6H6N4O2,006136-37-4,CN1C(=O)Nc2nc[nH]c2C1=O,"gaspari,f & bonati,m (1987) ",-0.27,6,6,4,2,0,0,0,0,0,0,,12,
3-acetylbenzonitrile,C9H7N1O1,006136-68-1,CC(=O)c1cccc(c1)C#N,"hansch,c et al. (1995) ",1.16,9,7,1,1,0,0,0,0,0,0,,11,
"acetophenone,o-dicl acetylamino",C10H9Cl2N1O2,006140-12-1,ClC(Cl)C(=O)Nc1ccccc1C(=O)(C),"hansch,c & leo,aj (1985) ",2.65,10,9,1,2,0,0,0,2,0,0,,15,
2-methylsulfanylquinazoline,C9H8N2S1,006141-18-0,CSc1ncc2ccccc2n1,"hansch,c et al. (1995) ",2.5,9,8,2,0,1,0,0,0,0,0,,12,
"2-(3-methoxyphenyl)indane-1,3-dione",C16H12O3,006149-23-1,COc1cccc(c1)C2C(=O)c3ccccc3C2=O,sangster (1994) ,2.88,16,12,0,3,0,0,0,0,0,0,,19,
"1h-imidazole, 2,4-dibromo-5-nitro-",C3H1Br2N3O2,006154-30-9,[O-][N+](=O)c1[nH]c(Br)nc1Br,biobyte (1995) ,2.82,3,1,3,2,0,0,0,0,2,0,,10,
"n',n'-dimethylsulfanilamide",C8H12N2O2S1,006162-21-6,CN(C)c1ccc(S(=O)(=O)N)cc1,"hansch,c et al. (1995) ",0.76,8,12,2,2,1,0,0,0,0,0,,13,
"dimethyl pyrazine-2,3-dicarboxylate",C8H8N2O4,006164-77-8,COC(=O)c1nccnc1C(=O)OC,"yamagami,c et al. (1991) ",-0.02,8,8,2,4,0,0,0,0,0,0,,14,
methyl pyrazine-2-carboxylate,C6H6N2O2,006164-79-0,COC(=O)c1cnccn1,"yamagami,c et al. (1990a) ",-0.23,6,6,2,2,0,0,0,0,0,0,,10,
chlordimeform,C10H13Cl1N2,006164-98-3,CN(C)C=Nc1ccc(Cl)cc1C,"hansch,c et al. (1995) ",2.89,10,13,2,0,0,0,0,1,0,0,,13,
"1,1,2,2-tetraethyl ethene-1,1,2,2-tetracarboxylate",C14H20O8,006174-95-4,CCOC(=O)C(C(=O)OCC)=C(C(=O)OCC)C(=O)OCC,"hansch,c et al. (1995) ",2.63,14,20,0,8,0,0,0,0,0,0,,22,
b-nitro-4-oh-3-methoxystyrene,C9H9N1O4,006178-42-3,COc1cc(C=CN(=O)(=O))ccc1O,"hansch,c & leo,aj (1985) ",1.88,9,9,1,4,0,0,0,0,0,0,,14,
desethylatrazine,C6H10Cl1N5,006190-65-4,CC(C)Nc1nc(N)nc(Cl)n1,"finizio,a et al. (1991) ",1.51,6,10,5,0,0,0,0,1,0,0,,12,
"2,6-dimethoxypyridine",C7H9N1O2,006231-18-1,COc1cccc(OC)n1,pomona (1987) ,2.3,7,9,1,2,0,0,0,0,0,0,,10,
6-methoxy-1h-benzimidazol-2-amine,C8H9N3O1,006232-91-3,COc1ccc2nc(N)[nH]c2c1,"hansch,c et al. (1995) ",0.57,8,9,3,1,0,0,0,0,0,0,,12,
ethyl n-(phenylamino)carbamate,C9H12N2O2,not,CCOC(=O)NNc1ccccc1,biobyte (1995) ,1.22,9,12,2,2,0,0,0,0,0,0,,13,
n-(2-hydroxyethyl)pyridine-3-carboxamide,C8H10N2O2,006265-73-2,OCCNC(=O)c1cccnc1,"hansch,c & leo,aj (1985) ",-0.11,8,10,2,2,0,0,0,0,0,0,,12,
"5-ethyl-1-methyl-5-(3-methylbutyl)-1,3-diazinane-2,4,6-trione",C12H20N2O3,006270-45-7,CCC1(CCC(C)C)C(=O)NC(=O)N(C)C1=O,biobyte (1995) ,2.45,12,20,2,3,0,0,0,0,0,0,,17,
2-nitro-4-chlorobenzoic acid,C7H4Cl1N1O4,006280-88-2,OC(=O)c1ccc(Cl)cc1[N+]([O-])=O,"hansch,c et al. (1995) ",2.08,7,4,1,4,0,0,0,1,0,0,,13,
n-(hydroxymethyl)benzamide,C8H9N1O2,006282-02-6,OCNC(=O)c1ccccc1,sangster (1994) ,0.4,8,9,1,2,0,0,0,0,0,0,,11,