Names,Formula,CAS No,SMILES,Reference,Exp logp,C,H,N,O,S,P,F,Cl,Br,I,,,
ethyl 4-methyl-1h-pyrrole-3-carboxylate,C8H11N1O2,002199-49-7,CCOC(=O)c1c[nH]cc1C,"hansch,c et al. (1995) ",2.14,8,11,1,2,0,0,0,0,0,0,,11,
"6,7-dimethylnaphthalene-1,4-dione",C12H10O2,002202-79-1,Cc1cc2C(=O)C=CC(=O)c2cc1C,"hansch,c et al. (1995) ",2.49,12,10,0,2,0,0,0,0,0,0,,14,
"1-phenylimidazolidine-2,4,5-trione",C9H6N2O3,002211-33-8,O=C1NC(=O)C(=O)N1c2ccccc2,"lipinski,ca et al. (1991) ",0.6,9,6,2,3,0,0,0,0,0,0,,14,
s-ethyl azepane-1-carbothioate,C9H17N1O1S1,002212-67-1,CCSC(=O)N1CCCCCC1,"hansch,c et al. (1995) ",3.21,9,17,1,1,1,0,0,0,0,0,,12,
piperidin-1-amine,C5H12N2,002213-43-6,NN1CCCCC1,"hansch,c et al. (1995) ",-0.28,5,12,2,0,0,0,0,0,0,0,,7,
"o=p(ome)(nme)o-2,4,5-clphenyl",C8H9Cl3N1O3P1,002213-70-9,CNP(=O)(Oc1c(Cl)cc(Cl)c(Cl)c1)OC,"hansch,c & leo,aj (1985) ",3.06,8,9,1,3,0,1,0,3,0,0,,16,
"o=p(ome)(net)o-2,4,5-clphenyl",C9H11Cl3N1O3P1,002213-84-5,CCNP(=O)(Oc1c(Cl)cc(Cl)c(Cl)c1)OC,"hansch,c & leo,aj (1985) ",3.18,9,11,1,3,0,1,0,3,0,0,,17,
"o=p(ome)(npr)o-2,4,5-clphenyl",C10H13Cl3N1O3P1,002213-85-6,CCCNP(=O)(Oc1c(Cl)cc(Cl)c(Cl)c1)OC,"hansch,c & leo,aj (1985) ",3.7,10,13,1,3,0,1,0,3,0,0,,18,
"phosphoramidic acid, n-butyl-, o-methyl o-(2,4,5",C11H15Cl3N1O3P1,002213-87-8,CCCCNP(=O)(Oc1c(Cl)cc(Cl)c(Cl)c1)OC,"hansch,c & leo,aj (1985) ",4.18,11,15,1,3,0,1,0,3,0,0,,19,
"phosphoramidic acid, n-(2-methylpropyl)-, o-meth",C11H15Cl3N1O3P1,002213-88-9,CC(C)CNP(=O)(Oc1c(Cl)cc(Cl)c(Cl)c1)OC,"hansch,c & leo,aj (1985) ",3.86,11,15,1,3,0,1,0,3,0,0,,19,
"phosphoramidic acid, n-(1,1-dimethylethyl)-, o-",C11H15Cl3N1O3P1,002214-33-7,CC(C)(C)NP(=O)(Oc1c(Cl)cc(Cl)c(Cl)c1)OC,"hansch,c & leo,aj (1985) ",3.83,11,15,1,3,0,1,0,3,0,0,,19,
"o=p(ome)(n)o-2,4,5-clphenyl",C7H7Cl3N1O3P1,002214-34-8,COP(=O)(N)Oc1c(Cl)cc(Cl)c(Cl)c1,"hansch,c & leo,aj (1985) ",2.53,7,7,1,3,0,1,0,3,0,0,,15,
2-methylpyridine-4-carbonitrile,C7H6N2,002214-53-1,Cc1cc(ccn1)C#N,"hansch,c et al. (1995) ",0.81,7,6,2,0,0,0,0,0,0,0,,9,
4-(phenoxy)benzoic acid,C13H10O3,002215-77-2,OC(=O)c1ccc(Oc2ccccc2)cc1,"hansch,c et al. (1995) ",3.91,13,10,0,3,0,0,0,0,0,0,,16,
(4-methylphenyl)methyl acetate,C10H12O2,002216-45-7,CC(=O)OCc1ccc(C)cc1,"hansch,c et al. (1995) ",2.44,10,12,0,2,0,0,0,0,0,0,,12,
n-methylnaphthalen-1-amine,C11H11N1,002216-68-4,CNc1cccc2ccccc12,pomona (1987) ,2.88,11,11,1,0,0,0,0,0,0,0,,12,
1-methoxynaphthalene,C11H10O1,002216-69-5,COc1cccc2ccccc12,chemicals inspection and testing institu (1992) ,3.45,11,10,0,1,0,0,0,0,0,0,,12,
"1,5,5-trimethylbicyclo[2.2.1]heptan-6-ol",C10H18O1,002217-02-9,CC1(C)C2CCC(C)(C2)C1O,"griffin,s et al. (1999) ",3.17,10,18,0,1,0,0,0,0,0,0,,11,
"5,5-dipropyl-1,3-diazinane-2,4,6-trione",C10H16N2O3,002217-08-5,CCCC1(CCC)C(=O)NC(=O)NC1=O,"wong,o & mckeown,rh (1988) ",1.75,10,16,2,3,0,0,0,0,0,0,,15,
"1-methyl-3-phenylimidazolidine-2,4-dione",C10H10N2O2,002221-12-7,CN1CC(=O)N(C1=O)c2ccccc2,sangster (1994) ,0.14,10,10,2,2,0,0,0,0,0,0,,14,
"3-phenylimidazolidine-2,4-dione",C9H8N2O2,002221-13-8,O=C1CNC(=O)N1c2ccccc2,"lipinski,ca et al. (1991) ",0.04,9,8,2,2,0,0,0,0,0,0,,13,
benzenecarbothioamide,C7H7N1S1,002227-79-4,NC(=S)c1ccccc1,"hansch,c et al. (1995) ",1.49,7,7,1,0,1,0,0,0,0,0,,9,
octachloronaphthalene,C10Cl8,002234-13-1,Clc1c(Cl)c(Cl)c2c(Cl)c(Cl)c(Cl)c(Cl)c2c1Cl,"lei,yd et al. (2000) ",8.5,10,0,0,0,0,0,0,8,0,0,,18,
5-phenylpentan-2-one,C11H14O1,002235-83-8,CC(=O)CCCc1ccccc1,"hansch,c et al. (1995) ",2.42,11,14,0,1,0,0,0,0,0,0,,12,
3-aminobenzonitrile,C7H6N2,002237-30-1,Nc1cccc(c1)C#N,"hansch,c et al. (1995) ",1.07,7,6,2,0,0,0,0,0,0,0,,9,
"[2-(9-fluoro-11,17-dihydroxy-10,13,16-trimethyl-3-oxo-6,7,8,11,12,14,15,16-octahydrocyclopenta[a]phenanthren-17-yl)-2-oxoethyl] pentanoate",C27H37F1O6,002240-28-0,CCCCC(=O)OCC(=O)C1(O)C(C)CC2C3CCC4=CC(=O)C=CC4(C)C3(F)C(O)CC12C,"hansch,c et al. (1995) ",3.87,27,37,0,6,0,0,1,0,0,0,,34,
dimethoxyphosphorylbenzene,C8H11O3P1,002240-41-7,CO[P](=O)(OC)c1ccccc1,"hansch,c et al. (1995) ",0.95,8,11,0,3,0,1,0,0,0,0,,12,
2240-88-2,C3H5F3O1,002240-88-2,OCCC(F)(F)F,"muller,n (1986) ",0.39,3,5,0,1,0,0,3,0,0,0,,7,
nonanenitrile,C9H17N1,002243-27-8,CCCCCCCCC#N,"tanii,h & hashimoto,k (1984) ",3.12,9,17,1,0,0,0,0,0,0,0,,10,
2-(phenoxy)benzoic acid,C13H10O3,002243-42-7,OC(=O)c1ccccc1Oc2ccccc2,"hansch,c et al. (1995) ",3.11,13,10,0,3,0,0,0,0,0,0,,16,
"naphthalene-1,5-diamine",C10H10N2,002243-62-1,Nc1cccc2c(N)cccc12,"schultz,tw & applehans,fm (1985) ",0.89,10,10,2,0,0,0,0,0,0,0,,12,
naphthalene-1-carboxamide,C11H9N1O1,002243-81-4,NC(=O)c1cccc2ccccc12,"alcorn,cr et al. (1993) ",1.88,11,9,1,1,0,0,0,0,0,0,,13,
1-(4-fluorophenyl)piperazine,C10H13F1N2,002252-63-3,Fc1ccc(cc1)N2CCNCC2,"caccia,s et al. (1985) ",1.28,10,13,2,0,0,0,1,0,0,0,,13,
3-chloro-dimethyl para-oxon,C8H9Cl1N1O6P1,002255-15-4,Clc1c(N(=O)(=O))ccc(OP(=O)(OC)OC)c1,"hansch,c & leo,aj (1985) ",1.83,8,9,1,6,0,1,0,1,0,0,,17,
dimethyl (3-methyl-4-nitrophenyl) phosphate,C9H12N1O6P1,002255-17-6,CO[P](=O)(OC)Oc1ccc(c(C)c1)[N+]([O-])=O,"hansch,c & leo,aj (1985) ",1.69,9,12,1,6,0,1,0,0,0,0,,17,
2-isothiocyanatoethylbenzene,C9H9N1S1,002257-09-2,S=C=NCCc1ccccc1,"hansch,c et al. (1995) ",3.47,9,9,1,0,1,0,0,0,0,0,,11,
cyclothiazide,C14H16Cl1N3O4S2,002259-96-3,N[S](=O)(=O)c1cc2c(NC(N[S]2(=O)=O)C3CC4CC3C=C4)cc1Cl,"yamazaki,m et al. (1984) ",1.95,14,16,3,4,2,0,0,1,0,0,,24,
diethyl 2-[(2-fluorophenyl)methylidene]propanedioate,C14H15F1O4,002262-52-4,CCOC(=O)C(=Cc1ccccc1F)C(=O)OCC,"hansch,c et al. (1995) ",3.04,14,15,0,4,0,0,1,0,0,0,,19,
"1,3-difluoro-5-nitrobenzene",C6H3F2N1O2,002265-94-3,[O-][N+](=O)c1cc(F)cc(F)c1,sangster (1993) ,2.03,6,3,1,2,0,0,2,0,0,0,,11,
5-phenylpentanoic acid,C11H14O2,002270-20-4,OC(=O)CCCCc1ccccc1,"austin,rp et al. (1995) ",2.94,11,14,0,2,0,0,0,0,0,0,,13,
n-carbamoyl-2-ethylbutanamide,C7H14N2O2,002274-01-3,CCC(CC)C(=O)NC(N)=O,"hansch,c et al. (1995) ",0.91,7,14,2,2,0,0,0,0,0,0,,11,
n-carbamoyl-3-methylbutanamide,C6H12N2O2,002274-08-0,CC(C)CC(=O)NC(N)=O,"hansch,c et al. (1995) ",0.45,6,12,2,2,0,0,0,0,0,0,,10,
2-methylsulfonylacetonitrile,C3H5N1O2S1,002274-42-2,C[S](=O)(=O)CC#N,"hansch,c et al. (1995) ",-1.42,3,5,1,2,1,0,0,0,0,0,,7,
"phosphoric acid,2-chloro-(2,4-dichlorophenyl)vin",C10H10Cl3O4P1,002274-67-1,COP(=O)(OC(=CCl)c1ccc(Cl)cc1Cl)OC,"tomlin,c (1994) ",3.13,10,10,0,4,0,1,0,3,0,0,,18,
1-isothiocyanato-4-methoxybenzene,C8H7N1O1S1,002284-20-0,COc1ccc(cc1)N=C=S,"augustin,s et al. (1987) ",3.58,8,7,1,1,1,0,0,0,0,0,,11,
"5-phenyl-7-(trifluoromethyl)-1,3-dihydro-1,4-benzodiazepin-2-one",C16H11F3N2O1,002285-16-7,FC(F)(F)c1ccc2NC(=O)CN=C(c3ccccc3)c2c1,biobyte (1995) ,3.1,16,11,2,1,0,0,3,0,0,0,,22,
pyrrolidine-2-thione,C4H7N1S1,002295-35-4,S=C1CCCN1,"hansch,c et al. (1995) ",-0.05,4,7,1,0,1,0,0,0,0,0,,6,
diallate,C10H17Cl2N1O1S1,002303-16-4,CC(C)N(C(C)C)C(=O)SC\C(Cl)=C\Cl,"ellington,jt & stancil,fe (1988) ",4.49,10,17,1,1,1,0,0,2,0,0,,15,
triallate,C10H16Cl3N1O1S1,002303-17-5,CC(C)N(C(C)C)C(=O)SCC(Cl)=C(Cl)Cl,"tomlin,c (1997) ",4.6,10,16,1,1,1,0,0,3,0,0,,16,
1-methyl-3-(4-nitrophenoxy)benzene,C13H11N1O3,002303-25-5,Cc1cccc(Oc2ccc(cc2)[N+]([O-])=O)c1,"nandihalli,ub et al. (1993) ",4.4,13,11,1,3,0,0,0,0,0,0,,17,
pentanochlor,C13H18Cl1N1O1,002307-68-8,CCCC(C)C(=O)Nc1ccc(C)c(Cl)c1,"mitsutake,ki et al. (1986) ",4.31,13,18,1,1,0,0,0,1,0,0,,16,
phosalone,C12H15Cl1N1O4P1S2,002310-17-0,CCO[P](=S)(OCC)SCN1C(=O)Oc2cc(Cl)ccc12,"hansch,c et al. (1995) ",4.38,12,15,1,4,2,1,0,1,0,0,,21,
[2-(4-tert-butylphenoxy)cyclohexyl] prop-2-ynyl sulfite,C19H26O4S1,002312-35-8,CC(C)(C)c1ccc(OC2CCCCC2O[S](=O)OCC#C)cc1,"saito,h et al. (1993) ",5,19,26,0,4,1,0,0,0,0,0,,24,
butyl 9-hydroxyfluorene-9-carboxylate,C18H18O3,002314-09-2,CCCCOC(=O)C1(O)c2ccccc2c3ccccc13,"tomlin,c (1997) ",3.7,18,18,0,3,0,0,0,0,0,0,,21,
"1-(4-methoxyphenyl)pyrrolidine-2,5-dione",C11H11N1O3,002314-80-9,COc1ccc(cc1)N2C(=O)CCC2=O,"hansch,c et al. (1995) ",0.15,11,11,1,3,0,0,0,0,0,0,,15,
propyl benzoate,C10H12O2,002315-68-6,CCCOC(=O)c1ccccc1,"hansch,c et al. (1995) ",3.01,10,12,0,2,0,0,0,0,0,0,,12,
"cinnamic acid,3,4-dimethoxy",C11H12O4,002316-26-9,COc1ccc(C=CC(=O)(O))cc1OC,"hansch,c et al. (1995) ",2.34,11,12,0,4,0,0,0,0,0,0,,15,
4-bromo-2-(hydroxymethyl)phenol,C7H7Br1O2,002316-64-5,OCc1cc(Br)ccc1O,sangster (1993) ,1.72,7,7,0,2,0,0,0,0,1,0,,10,
"(3,4-dichlorophenyl)urea",C7H6Cl2N2O1,002327-02-8,NC(=O)Nc1ccc(Cl)c(Cl)c1,sangster (1994) ,2.65,7,6,2,1,0,0,0,2,0,0,,12,
"4,5,6,7-tetrachlorobenzotriazole",C6H1Cl4N3,002338-10-5,Clc1c(Cl)c(Cl)c2nn[nH]c2c1Cl,"hansch,c et al. (1995) ",4.17,6,1,3,0,0,0,0,4,0,0,,13,
5-nitrobenzotriazole,C6H4N4O2,002338-12-7,[O-][N+](=O)c1ccc2[nH]nnc2c1,"hansch,c et al. (1995) ",1.95,6,4,4,2,0,0,0,0,0,0,,12,
"2-cf3-5,6-dichlorobenzimidazole",C8H3Cl2F3N2,002338-25-2,C1=C2C(=CC(=C1Cl)Cl)N=C(N2)C(F)(F)F,"hansch,c et al. (1995) ",3.49,8,3,2,0,0,0,3,2,0,0,,15,
"1h-benzimidazole, 4,5,6-trichloro-2-(trifluorome",C8H2Cl3F3N2,002338-27-4,C1=C2C(=C(C(=C1Cl)Cl)Cl)N=C(N2)C(F)(F)F,sangster (1994) ,3.87,8,2,2,0,0,0,3,3,0,0,,16,
"4,5,6,7-tetrabromo-2-(trifluoromethyl)-1h-benzimidazole",C8H1Br4F3N2,002338-30-9,FC(F)(F)c1[nH]c2c(Br)c(Br)c(Br)c(Br)c2n1,"hansch,c et al. (1995) ",4.81,8,1,2,0,0,0,3,0,4,0,,17,
2-cf3-4-chlorobenzimidazole,C8H4Cl1F3N2,002338-31-0,C1=CC2=C(C(=C1)Cl)N=C(N2)C(F)(F)F,"hansch,c et al. (1995) ",2.93,8,4,2,0,0,0,3,1,0,0,,14,
4-acetyloxybenzoic acid,C9H8O4,002345-34-8,CC(=O)Oc1ccc(cc1)C(O)=O,daylight (1999) ,1.48,9,8,0,4,0,0,0,0,0,0,,13,
"2-methoxynaphthalene-1,4-dione",C11H8O3,002348-82-5,COC1=CC(=O)c2ccccc2C1=O,"hansch,c et al. (1995) ",1.35,11,8,0,3,0,0,0,0,0,0,,14,
4-methylbenzenecarbothioamide,C8H9N1S1,002362-62-1,Cc1ccc(cc1)C(N)=S,sangster (1994) ,2.01,8,9,1,0,1,0,0,0,0,0,,10,
4-methoxybenzenecarbothioamide,C8H9N1O1S1,002362-64-3,COc1ccc(cc1)C(N)=S,"polasek,m et al. (1988) ",1.63,8,9,1,1,1,0,0,0,0,0,,11,
1-(2-chloroethyl)-1-nitrosourea,C3H6Cl1N3O2,002365-30-2,NC(=O)N(CCCl)N=O,"hansch,c et al. (1995) ",0.57,3,6,3,2,0,0,0,1,0,0,,9,
1-fluorobutane,C4H9F1,002366-52-1,CCCCF,"hansch,c et al. (1995) ",2.58,4,9,0,0,0,0,1,0,0,0,,5,
"5-ethyl-5-prop-2-enyl-1,3-diazinane-2,4,6-trione",C9H12N2O3,002373-84-4,CCC1(CC=C)C(=O)NC(=O)NC1=O,"hansch,c et al. (1995) ",0.95,9,12,2,3,0,0,0,0,0,0,,14,
4-amino-3-hydroxybenzoic acid,C7H7N1O3,002374-03-0,Nc1ccc(cc1O)C(O)=O,"hansch,c et al. (1995) ",0.5,7,7,1,3,0,0,0,0,0,0,,11,
4-(2-hydroxyethyl)-2-methoxyphenol,C9H12O3,002380-78-1,COc1cc(CCO)ccc1O,"hansch,c et al. (1995) ",0.47,9,12,0,3,0,0,0,0,0,0,,12,
"3,7-dimethyloct-6-enal",C10H18O1,002385-77-5,CC(CCC=C(C)C)CC=O,"griffin,s et al. (1999) ",3.83,10,18,0,1,0,0,0,0,0,0,,11,
mirex,C10Cl12,002385-85-5,ClC1(Cl)C2(Cl)C3(Cl)C4(Cl)C(Cl)(Cl)C5(Cl)C3(Cl)C1(Cl)C5(Cl)C24Cl,"veith,gd et al. (1979) ",6.89,10,0,0,0,0,0,0,12,0,0,,22,
"1,1-dichloro-2,2-diphenylethane",C14H12Cl2,002387-16-8,ClC(Cl)C(c1ccccc1)c2ccccc2,"hansch,c et al. (1995) ",4.51,14,12,0,0,0,0,0,2,0,0,,16,
"phosphoramidic acid, n-(1-methylpropyl)-, o-meth",C11H15Cl3N1O3P1,002388-47-8,CCC(C)NP(=O)(Oc1c(Cl)cc(Cl)c(Cl)c1)OC,"hansch,c et al. (1995) ",3.99,11,15,1,3,0,1,0,3,0,0,,19,
2-hydroxy-5-nitro-n-phenylbenzamide,C13H10N2O4,002389-37-9,Oc1ccc(cc1C(=O)Nc2ccccc2)[N+]([O-])=O,"terada,h et al. (1988) ",3.66,13,10,2,4,0,0,0,0,0,0,,19,
1-chloro-3-isothiocyanato-benzene,C7H4Cl1N1S1,002392-68-9,Clc1cccc(c1)N=C=S,sangster (1994) ,3.36,7,4,1,0,1,0,0,1,0,0,,10,
1-bromo-3-methoxybenzene,C7H7Br1O1,002398-37-0,COc1cccc(Br)c1,"dunn,wj et al. (1983) ",3.03,7,7,0,1,0,0,0,0,1,0,,9,
dodecan-3-ylbenzene,C18H30,002400-00-2,CCCCCCCCCC(CC)c1ccccc1,"sherblom,pm et al. (1992) ",8.1,18,30,0,0,0,0,0,0,0,0,,18,
"2,3-dichloropyridine",C5H3Cl2N1,002402-77-9,Clc1cccnc1Cl,"hansch,c et al. (1995) ",2.11,5,3,1,0,0,0,0,2,0,0,,8,
"2,6-dichloropyridine",C5H3Cl2N1,002402-78-0,Clc1cccc(Cl)n1,"hansch,c et al. (1995) ",2.15,5,3,1,0,0,0,0,2,0,0,,8,
"2,3,5,6-tetrachlorpyridine",C5H1Cl4N1,002402-79-1,n1c(Cl)c(Cl)cc(Cl)c1Cl,"hansch,c et al. (1995) ",3.32,5,1,1,0,0,0,0,4,0,0,,10,
n-(phenylmethyl)butan-1-amine,C11H17N1,002403-22-7,CCCCNCc1ccccc1,"kril,mb & fung,hl (1990) ",2.59,11,17,1,0,0,0,0,0,0,0,,12,
3-(1h-benzimidazol-2-yl)propan-1-ol,C10H12N2O1,002403-66-9,OCCCc1[nH]c2ccccc2n1,"hansch,c et al. (1995) ",1.25,10,12,2,1,0,0,0,0,0,0,,13,
1-(butoxy-methylphosphoryl)oxybutane,C9H21O3P1,002404-73-1,CCCCO[P](C)(=O)OCCCC,"krikorian,se et al. (1987) ",3.26,9,21,0,3,0,1,0,0,0,0,,13,
2-amino-3-(4-aminophenyl)propanoic acid,C9H12N2O2,002410-24-4,NC(Cc1ccc(N)cc1)C(O)=O,"hansch,c et al. (1995) ",-2.2,9,12,2,2,0,0,0,0,0,0,,13,
"2,3,6-trimethylphenol",C9H12O1,002416-94-6,Cc1ccc(C)c(O)c1C,sangster (1993) ,2.67,9,12,0,1,0,0,0,0,0,0,,10,
4-chlorosalicylaldehyde,C7H5Cl1O2,002420-26-0,Oc1cc(Cl)ccc1C=O,biobyte starlist (2009) ,2.49,7,5,0,2,0,0,0,1,0,0,,10,
captafol,C10H9Cl4N1O2S1,002425-06-1,ClC(Cl)C(Cl)(Cl)SN1C(=O)C2CC=CCC2C1=O,"tomlin,c (1997) ",3.8,10,9,1,2,1,0,0,4,0,0,,18,
"(3,4-dimethylphenyl) n-methylcarbamate",C10H13N1O2,002425-10-7,CNC(=O)Oc1ccc(C)c(C)c1,"hansch,c et al. (1995) ",2.09,10,13,1,2,0,0,0,0,0,0,,13,
2-(butoxymethyl)oxirane,C7H14O2,002426-08-6,CCCCOCC1CO1,"hansch,c et al. (1995) ",0.63,7,14,0,2,0,0,0,0,0,0,,9,
"diethyl pyrazine-2,3-dicarboxylate",C10H12N2O4,002427-90-9,CCOC(=O)c1nccnc1C(=O)OCC,"yamagami,c et al. (1991) ",0.65,10,12,2,4,0,0,0,0,0,0,,16,
"n,n-diethyl-2-phenylacetamide",C12H17N1O1,002431-96-1,CCN(CC)C(=O)Cc1ccccc1,"suryanarayana,mvs et al. (1991) ",2.4,12,17,1,1,0,0,0,0,0,0,,14,
3-methylquinazolin-4-one,C9H8N2O1,002436-66-0,CN1C=Nc2ccccc2C1=O,pomona (1987) ,0.69,9,8,2,1,0,0,0,0,0,0,,12,
"2,4,6-tribromobenzene-1,3-diol",C6H3Br3O2,002437-49-2,Oc1c(Br)cc(Br)c(O)c1Br,"hansch,c et al. (1995) ",4.37,6,3,0,2,0,0,0,0,3,0,,11,
"2,2',4,4'-tetrachlorobiphenyl",C12H6Cl4,002437-79-8,Clc1ccc(c(Cl)c1)c2ccc(Cl)cc2Cl,"hansch,c et al. (1995) ",6.29,12,6,0,0,0,0,0,4,0,0,,16,
4-propylbenzoic acid,C10H12O2,002438-05-3,CCCc1ccc(cc1)C(O)=O,"da,yz et al. (1992) ",3.42,10,12,0,2,0,0,0,0,0,0,,12,
2-(4-butoxyphenyl)-n-hydroxyacetamide,C12H17N1O3,002438-72-4,CCCCOc1ccc(CC(=O)NO)cc1,"hansch,c et al. (1995) ",2.08,12,17,1,3,0,0,0,0,0,0,,16,
pyridine-3-sulfonamide,C5H6N2O2S1,002438-76-8,N[S](=O)(=O)c1cccnc1,"hansch,c et al. (1995) ",-0.49,5,6,2,2,1,0,0,0,0,0,,10,
2-methoxybenzamide,C8H9N1O2,002439-77-2,COc1ccccc1C(N)=O,"hansch,c et al. (1995) ",0.86,8,9,1,2,0,0,0,0,0,0,,11,
2-(benzotriazol-2-yl)-4-methylphenol,C13H11N3O1,002440-22-4,Cc1ccc(O)c(c1)n2nc3ccccc3n2,"hansch,c et al. (1995) ",4.31,13,11,3,1,0,0,0,0,0,0,,17,
hexanehydrazide,C6H14N2O1,002443-62-1,CCCCCC(=O)NN,"hansch,c et al. (1995) ",0.48,6,14,2,1,0,0,0,0,0,0,,9,
"4,4'-dichlorodiphenyl ether",C12H8Cl2O1,002444-89-5,Clc1ccc(Oc2ccc(Cl)cc2)cc1,"kurz,j & ballschmiter,k (1999) ",5.25,12,8,0,1,0,0,0,2,0,0,,15,
"6,7,8,9-tetrahydropyrido[2,1-b]quinazolin-11-one",C12H12N2O1,002446-62-0,O=C1N2CCCCC2=Nc3ccccc13,sangster (1994) ,1.52,12,12,2,1,0,0,0,0,0,0,,15,
"4-amino-n-(5,6-dimethoxypyrimidin-4-yl)benzenesulfonamide",C12H14N4O4S1,002447-57-6,COc1ncnc(N[S](=O)(=O)c2ccc(N)cc2)c1OC,sangster (1994) ,0.7,12,14,4,4,1,0,0,0,0,0,,21,
methyl pyrimidine-4-carboxylate,C6H6N2O2,002450-08-0,COC(=O)c1ccncn1,"yamagami,c et al. (1990) ",-0.27,6,6,2,2,0,0,0,0,0,0,,10,
2-aminobenzenecarbothioamide,C7H8N2S1,002454-39-9,NC(=S)c1ccccc1N,"hansch,c et al. (1995) ",0.99,7,8,2,0,1,0,0,0,0,0,,10,
"n,n-dimethyl-2-(3-methylphenoxy)ethanamine",C11H17N1O1,002455-15-4,CN(C)CCOc1cccc(C)c1,"al-saadi,d et al. (1993) ",2.05,11,17,1,1,0,0,0,0,0,0,,13,
"3,5-dichloropyridine",C5H3Cl2N1,002457-47-8,Clc1cncc(Cl)c1,"hansch,c et al. (1995) ",2.56,5,3,1,0,0,0,0,2,0,0,,8,
2-chloro-4-aminobenzoic acid,C7H6Cl1N1O2,002457-76-3,Nc1ccc(C(O)=O)c(Cl)c1,"hansch,c et al. (1995) ",1.33,7,6,1,2,0,0,0,1,0,0,,11,
methyl pyridine-2-carboxylate,C7H7N1O2,002459-07-6,COC(=O)c1ccccn1,"hansch,c et al. (1995) ",0.36,7,7,1,2,0,0,0,0,0,0,,10,
methyl pyridine-4-carboxylate,C7H7N1O2,002459-09-8,COC(=O)c1ccncc1,"hansch,c et al. (1995) ",0.87,7,7,1,2,0,0,0,0,0,0,,10,
"4,5-dichloro-2-methoxyphenol",C7H6Cl2O2,002460-49-3,COc1cc(Cl)c(Cl)cc1O,"hansch,c et al. (1995) ",3.26,7,6,0,2,0,0,0,2,0,0,,11,
dicapthon,C8H9Cl1N1O5P1S1,002463-84-5,CO[P](=S)(OC)Oc1ccc(cc1Cl)[N+]([O-])=O,"hansch,c et al. (1995) ",3.58,8,9,1,5,1,1,0,1,0,0,,17,
1-imidazol-1-ylethanone,C5H6N2O1,002466-76-4,CC(=O)n1ccnc1,pomona (1987) ,-0.34,5,6,2,1,0,0,0,0,0,0,,8,
"6,7-dimethyl-1,4-dihydroquinoxaline-2,3-dione",C10H10N2O2,002474-50-2,Cc1cc2NC(=O)C(=O)Nc2cc1C,"hansch,c et al. (1995) ",1.34,10,10,2,2,0,0,0,0,0,0,,14,
"3-buten-2-one,4-(3-fluorophenyl)-",C10H9F1O1,002481-53-0,CC(=O)C=Cc1cccc(F)c1,"yamagami,c et al. (1998) ",2.25,10,9,0,1,0,0,1,0,0,0,,12,
"3-methylbutyl 3,4,5-trihydroxybenzoate",C12H16O5,002486-02-4,CC(C)CCOC(=O)c1cc(O)c(O)c(O)c1,"hansch,c et al. (1995) ",2.8,12,16,0,5,0,0,0,0,0,0,,17,
4-amino-2-bromobenzoic acid,C7H6Br1N1O2,002486-52-4,Nc1ccc(C(O)=O)c(Br)c1,"hansch,c et al. (1995) ",1.49,7,6,1,2,0,0,0,0,1,0,,11,
4-amino-3-methylbenzoic acid,C8H9N1O2,002486-70-6,Cc1cc(ccc1N)C(O)=O,sangster (1994) ,1.37,8,9,1,2,0,0,0,0,0,0,,11,
4-amino-2-methylbenzoic acid,C8H9N1O2,002486-75-1,Cc1cc(N)ccc1C(O)=O,sangster (1994) ,1.14,8,9,1,2,0,0,0,0,0,0,,11,
4-amino-2-prop-2-enoxybenzoic acid,C10H11N1O3,002486-77-3,Nc1ccc(C(O)=O)c(OCC=C)c1,"hansch,c et al. (1995) ",1.25,10,11,1,3,0,0,0,0,0,0,,14,
4-amino-2-propoxybenzoic acid,C10H13N1O3,002486-79-5,CCCOc1cc(N)ccc1C(O)=O,"hansch,c et al. (1995) ",1.53,10,13,1,3,0,0,0,0,0,0,,14,
4-amino-2-methoxybenzoic acid,C8H9N1O3,002486-80-8,COc1cc(N)ccc1C(O)=O,sangster (1994) ,0.45,8,9,1,3,0,0,0,0,0,0,,12,
"[14-hydroxy-10,13-dimethyl-17-(5-oxo-2h-furan-3-yl)-1,2,3,4,5,6,7,8,9,11,12,15,16,17-tetradecahydrocyclopenta[a]phenanthren-3-yl] hydrogen sulfate",C23H34O7S1,002488-80-4,CC12CCC(CC1CCC3C2CCC4(C)C(CCC34O)C5=CC(=O)OC5)O[S](O)(=O)=O,sangster (1994) ,-0.21,23,34,0,7,1,0,0,0,0,0,,31,
"1,1,3-trimethylthiourea",C4H10N2S1,002489-77-2,CNC(=S)N(C)C,"hansch,c et al. (1995) ",0.1,4,10,2,0,1,0,0,0,0,0,,7,
"2-(hydroxymethyl)-6-(4-nitrophenoxy)oxane-3,4,5-triol",C12H15N1O8,010357-27-4,OCC1OC(Oc2ccc(cc2)[N+]([O-])=O)C(O)C(O)C1O,sangster (1994) ,-0.18,12,15,1,8,0,0,0,0,0,0,,21,
phenylmethyl 2-methylprop-2-enoate,C11H12O2,002495-37-6,CC(=C)C(=O)OCc1ccccc1,sangster (1993) ,2.53,11,12,0,2,0,0,0,0,0,0,,13,
diethoxy-(2-ethylsulfonylethylsulfanyl)-sulfanylidenephosphorane,C8H19O4P1S3,002497-06-5,CCO[P](=S)(OCC)SCC[S](=O)(=O)CC,"hansch,c et al. (1995) ",1.87,8,19,0,4,3,1,0,0,0,0,,16,
diethoxy-(2-ethylsulfinylethylsulfanyl)-sulfanylidenephosphorane,C8H19O3P1S3,002497-07-6,CCO[P](=S)(OCC)SCC[S](=O)CC,"hansch,c et al. (1995) ",1.73,8,19,0,3,3,1,0,0,0,0,,15,
"benzo[a]anthracene-7,12-dione",C18H10O2,002498-66-0,O=C1c2ccccc2C(=O)c3c4ccccc4ccc13,chemicals inspection and testing institu (1992) ,4.4,18,10,0,2,0,0,0,0,0,0,,20,
diethyl phenyl phosphate,C10H15O4P1,002510-86-3,CCO[P](=O)(OCC)Oc1ccccc1,"hansch,c et al. (1995) ",1.64,10,15,0,4,0,1,0,0,0,0,,15,
n-(dimethylamino-methylphosphoryl)-n-methylmethanamine,C5H15N2O1P1,002511-17-3,CN(C)[P](C)(=O)N(C)C,"debord,j & labadie,m (1985) ",-0.67,5,15,2,1,0,1,0,0,0,0,,9,
"2,2-dimethylchromene",C11H12O1,002513-25-9,CC1(C)Oc2ccccc2C=C1,"hansch,c et al. (1995) ",3.31,11,12,0,1,0,0,0,0,0,0,,12,
2-nitro-5-chlorobenzoic acid,C7H4Cl1N1O4,002516-95-2,OC(=O)c1cc(Cl)ccc1[N+]([O-])=O,"hansch,c et al. (1995) ",2.13,7,4,1,4,0,0,0,1,0,0,,13,
2-chloro-5-nitrobenzoic acid,C7H4Cl1N1O4,002516-96-3,OC(=O)c1cc(ccc1Cl)[N+]([O-])=O,"hansch,c et al. (1995) ",2.03,7,4,1,4,0,0,0,1,0,0,,13,
azetidine-2-carboxylic acid,C4H7N1O2,002517-04-6,OC(=O)C1CCN1,"tsai,rs et al. (1991) ",-2.84,4,7,1,2,0,0,0,0,0,0,,7,
"5-ethyl-1,3-diazinane-2,4,6-trione",C6H8N2O3,002518-72-1,CCC1C(=O)NC(=O)NC1=O,"hansch,c et al. (1995) ",-0.35,6,8,2,3,0,0,0,0,0,0,,11,
"n-diethylaminoetaniline,3-cl-4-me",C13H21Cl1N2,002519-75-7,Clc1c(C)ccc(NCCN(CC)CC)c1,"hansch,c et al. (1995) ",4.14,13,21,2,0,0,0,0,1,0,0,,16,
"benzenecarbothiamide, 4-chloro-",C7H6Cl1N1S1,002521-24-6,NC(=S)c1ccc(Cl)cc1,sangster (1994) ,2.4,7,6,1,0,1,0,0,1,0,0,,10,
ethyl pyridine-2-carboxylate,C8H9N1O2,002524-52-9,CCOC(=O)c1ccccn1,"hansch,c et al. (1995) ",0.87,8,9,1,2,0,0,0,0,0,0,,11,
"4-butylbenzene-1,2-diol",C10H14O2,002525-05-5,CCCCc1ccc(O)c(O)c1,"naito,y et al. (1991) ",2.96,10,14,0,2,0,0,0,0,0,0,,12,