Names,Formula,CAS No,SMILES,Reference,Exp logp,C,H,N,O,S,P,F,Cl,Br,I,,,
4-oxo-4-(4-phenylphenyl)butanoic acid,C16H14O3,036330-85-5,OC(=O)CCC(=O)c1ccc(cc1)c2ccccc2,"hansch,c et al. (1995) ",3.2,16,14,0,3,0,0,0,0,0,0,,19,
n-[ethoxy-(5-methyl-2-nitrophenoxy)phosphinothioyl]butan-2-amine,C13H21N2O4P1S1,036335-67-8,CCO[P](=S)(NC(C)CC)Oc1cc(C)ccc1[N+]([O-])=O,"tomlin,c (1994) ",4.62,13,21,2,4,1,1,0,0,0,0,,21,
"5-(2,3-dimethylbutyl)-5-ethyl-1,3-diazinane-2,4,6-trione",C12H20N2O3,036380-48-0,CCC1(CC(C)C(C)C)C(=O)NC(=O)NC1=O,"hansch,c et al. (1995) ",2.02,12,20,2,3,0,0,0,0,0,0,,17,
2-(phenoxy)-1-piperidin-1-ylethanone,C13H17N1O2,036405-75-1,O=C(COc1ccccc1)N2CCCCC2,"hansch,c & leo,aj (1985) ",1.81,13,17,1,2,0,0,0,0,0,0,,16,
"benzene, 1,1'-oxybis-, hexabromo deriv.",C12H4Br6O1,036483-60-0,Brc1cc(Br)c(Oc2cc(Br)cc(Br)c2Br)c(Br)c1,"sjodin,a et al. (2001) ",7.4,12,4,0,1,0,0,0,0,6,0,,19,
"8-[4-(4-pyrimidin-2-ylpiperazin-1-yl)butyl]-8-azaspiro[4.5]decane-7,9-dione",C21H31N5O2,036505-84-7,O=C1CC2(CCCC2)CC(=O)N1CCCCN3CCN(CC3)c4ncccn4,"takacs-novak,k 1995 (in press) ",2.63,21,31,5,2,0,0,0,0,0,0,,28,
"9-(hydroxymethyl)-6,6-dimethyl-3-pentyl-6a,7,8,10a-tetrahydrobenzo[c]chromen-1-ol",C21H30O3,036557-05-8,CCCCCc1cc(O)c2C3C=C(CO)CCC3C(C)(C)Oc2c1,sangster (1993) ,5.33,21,30,0,3,0,0,0,0,0,0,,24,
"3-(3,5-dimethylphenyl)-1,1-dimethylurea",C11H16N2O1,036627-56-2,CN(C)C(=O)Nc1cc(C)cc(C)c1,"hansch,c & leo,aj (1985) ",1.9,11,16,2,1,0,0,0,0,0,0,,14,
1-br-pentachlorocyclohexane,C6H6Br1Cl5,036635-03-7,C1(Br)C(Cl)C(Cl)C(Cl)C(Cl)C1Cl,"hansch,c & leo,aj (1985) ",3.81,6,6,0,0,0,0,0,5,1,0,,12,
"n-(2,6-dimethylphenyl)-2-(ethyl-propylamino)butanamide",C17H28N2O1,036637-18-0,CCCN(CC)C(CC)C(=O)Nc1c(C)cccc1C,"hansch,c et al. (1995) ",3.69,17,28,2,1,0,0,0,0,0,0,,20,
4-[2-(2-nitroimidazol-1-yl)ethyl]morpholine,C9H14N4O3,036664-18-3,[O-][N+](=O)c1nccn1CCN2CCOCC2,sangster (1993) ,-0.1,9,14,4,3,0,0,0,0,0,0,,16,
rovral (iprodione),C13H13Cl2N3O3,036734-19-7,N1(C(=O)NC(C)C)CC(=O)N(c2cc(Cl)cc(Cl)c2)C1(=O),"tomlin,c (1997) ",3,13,13,3,3,0,0,0,2,0,0,,21,
"2h-1,4-benzodiazepine-2-thione, 7-chloro-5-(2-fl",C17H11Cl1F4N2S1,036735-22-5,Clc1ccc2c(C(c3ccccc3F)=NCC(=S)N2CC(F)(F)F)c1,sangster (1994) ,4.03,17,11,2,0,1,0,4,1,0,0,,25,
s-(phenylmethyl) (di(butan-2-yl)amino)methanethioate,C16H25N1O1S1,036756-79-3,CCC(C)N(C(C)CC)C(=O)SCc1ccccc1,"hansch,c et al. (1995) ",4.4,16,25,1,1,1,0,0,0,0,0,,19,
"1-[3,4-dihydroxy-5-(hydroxymethyl)oxolan-2-yl]-1,2,4-triazole-3-carboxamide",C8H12N4O5,036791-04-5,NC(=O)c1ncn(n1)C2OC(CO)C(O)C2O,biobyte (1995) ,-1.85,8,12,4,5,0,0,0,0,0,0,,17,
2-hydroxy-5-[1-hydroxy-2-(4-phenylbutan-2-ylamino)ethyl]benzamide,C19H24N2O3,036894-69-6,CC(CCc1ccccc1)NCC(O)c2ccc(O)c(c2)C(N)=O,"hansch,c et al. (1995) ",3.09,19,24,2,3,0,0,0,0,0,0,,24,
"1-(2-amino-4-methyl-1,3-thiazol-5-yl)-3-dimethylaminopropan-1-one",C9H15N3O1S1,036975-20-9,CN(C)CCC(=O)c1sc(N)nc1C,"sotomatsu,t et al. (1993) ",1.47,9,15,3,1,1,0,0,0,0,0,,14,
"3-buten-2-one,4-(4-ethoxyphenyl)-",C12H14O2,037080-10-7,CC(=O)C=Cc1ccc(OCC)cc1,"yamagami,c et al. (1998) ",2.73,12,14,0,2,0,0,0,0,0,0,,14,
124-benzothiadiazine-1-o2-3-me-6-br,C8H7Br1N2O2S1,037148-00-8,CC1NS(=O)(=O)c2c(cc(Br)cc2)N=1,"hansch,c & leo,aj (1985) ",1.37,8,7,2,2,1,0,0,0,1,0,,14,
"124-benzothiadiazine,7-i-3-me,1,1-dio",C8H7I1N2O2S1,037148-02-0,CC1NS(=O)(=O)c2c(ccc(I)c2)N=1,pomona (1987) ,1.61,8,7,2,2,1,0,0,0,0,1,,14,
124-benzthiadiz-1-o2-3-me-6-nh2-7-cl,C8H8Cl1N3O2S1,037148-08-6,CC1NS(=O)(=O)c2c(cc(N)c(Cl)c2)N=1,"hansch,c & leo,aj (1985) ",0.63,8,8,3,2,1,0,0,1,0,0,,15,
124-benzthiadiazin-11so2-3me5i7cl,C8H6Cl1I1N2O2S1,037148-13-3,CC1NS(=O)(=O)c2c(c(I)cc(Cl)c2)N=1,"hansch,c & leo,aj (1985) ",1.81,8,6,2,2,1,0,0,1,0,1,,15,
124-benzothiadiazine-1-o2-3-pr-6-cl,C10H11Cl1N2O2S1,037148-19-9,CCCC1NS(=O)(=O)c2c(cc(Cl)cc2)N=1,"hansch,c & leo,aj (1985) ",2.04,10,11,2,2,1,0,0,1,0,0,,16,
124-benzothiadiazin-1-o2-3-ipr-6-cl,C10H11Cl1N2O2S1,037148-20-2,CC(C)C1NS(=O)(=O)c2c(cc(Cl)cc2)N=1,"hansch,c & leo,aj (1985) ",2,10,11,2,2,1,0,0,1,0,0,,16,
124-benzothiadiazin-1-o2-3-ibu-6-cl,C11H13Cl1N2O2S1,037148-21-3,CC(C)CC1NS(=O)(=O)c2c(cc(Cl)cc2)N=1,"hansch,c & leo,aj (1985) ",2.35,11,13,2,2,1,0,0,1,0,0,,17,
124-benzothiadiazin-1-o2-3-sbu-7-cl,C11H13Cl1N2O2S1,037148-22-4,CCC(C)C1NS(=O)(=O)c2c(ccc(Cl)c2)N=1,"hansch,c & leo,aj (1985) ",2.47,11,13,2,2,1,0,0,1,0,0,,17,
124-benzthiadiazin-1-o2-3-cybu-7-cl,C11H11Cl1N2O2S1,037148-24-6,C1CC(C2NS(=O)(=O)c3c(ccc(Cl)c3)N=2)C1,"hansch,c & leo,aj (1985) ",2.24,11,11,2,2,1,0,0,1,0,0,,17,
124-benzthiadiazn-1-o2-3-neope-7-cl,C12H15Cl1N2O2S1,037157-54-3,CC(C)(C)CC1NS(=O)(=O)c2c(ccc(Cl)c2)N=1,"hansch,c & leo,aj (1985) ",2.71,12,15,2,2,1,0,0,1,0,0,,18,
124-benzthiadiazne-1-o2-3-meome-6-cl,C9H9Cl1N2O3S1,037157-71-4,COCC1NS(=O)(=O)c2c(cc(Cl)cc2)N=1,"hansch,c & leo,aj (1985) ",1.12,9,9,2,3,1,0,0,1,0,0,,16,
124-benzthidiazin-1o2-3me-7so2n(dime),C10H13N3O4S2,037157-82-7,CC1NS(=O)(=O)c2c(ccc(S(=O)(=O)N(C)C)c2)N=1,"hansch,c & leo,aj (1985) ",0.32,10,13,3,4,2,0,0,0,0,0,,19,
124-benzthiadiazine-1-o2-3-bu-7-cl,C11H13Cl1N2O2S1,037157-85-0,CCCCC1NS(=O)(=O)c2c(ccc(Cl)c2)N=1,"hansch,c & leo,aj (1985) ",2.52,11,13,2,2,1,0,0,1,0,0,,17,
124-benzthiadiazin-1-o2-3-cyhexyl,C13H16N2O2S1,037157-88-3,C1CCC(C2NS(=O)(=O)c3c(cccc3)N=2)CC1,biobyte (1995) ,2.2,13,16,2,2,1,0,0,0,0,0,,18,
"2h-1,2,4-benzothiadiazine, 3-(1-cyclopenten-1-yl",C12H12N2O2S1,037157-89-4,C1C=C(C2NS(=O)(=O)c3c(cccc3)N=2)CC1,pomona (1987) ,1.69,12,12,2,2,1,0,0,0,0,0,,17,
"2h-1,2,4-benzothiadiazine, 3-(3-cyclopenten-1-yl",C12H12N2O2S1,037157-90-7,C1CC(C2NS(=O)(=O)c3c(cccc3)N=2)CC=1,biobyte (1995) ,1.53,12,12,2,2,1,0,0,0,0,0,,17,
124-benzthiadiazin-1-o2-3cyhexen-3-yl,C13H14N2O2S1,037157-91-8,C1CCC(C2NS(=O)(=O)c3c(cccc3)N=2)CC=1,"hansch,c & leo,aj (1985) ",2.05,13,14,2,2,1,0,0,0,0,0,,18,
124-benzthiadiazin-1-o2-3(5norben2yl),C14H14N2O2S1,037157-92-9,c1cc2N=C(C3C4CC(C=C4)C3)NS(=O)(=O)c2cc1,"hansch,c & leo,aj (1985) ",2.06,14,14,2,2,1,0,0,0,0,0,,19,
"3-thiophen-2-yl-4h-benzo[e][1,2,4]thiadiazine 1,1-dioxide",C11H8N2O2S2,037157-95-2,O=[S]1(=O)N=C(Nc2ccccc12)c3sccc3,"hansch & leo, 1985",1.68,11,8,2,2,2,0,0,0,0,0,,17,
"3-furan-2-yl-4h-benzo[e][1,2,4]thiadiazine 1,1-dioxide",C11H8N2O3S1,037157-96-3,O=[S]1(=O)N=C(Nc2ccccc12)c3occc3,"hansch & leo, 1985",1.06,11,8,2,3,1,0,0,0,0,0,,17,
124-benzthiadiazne-1-o2-3-etsme-6-cl,C10H11Cl1N2O2S2,037158-00-2,CCSCC1NS(=O)(=O)c2c(cc(Cl)cc2)N=1,"hansch,c & leo,aj (1985) ",2.26,10,11,2,2,2,0,0,1,0,0,,17,
n-(4-fluorophenyl)-2-piperidin-1-ylacetamide,C13H17F1N2O1,037163-41-0,Fc1ccc(NC(=O)CN2CCCCC2)cc1,"hansch,c et al. (1995) ",2.7,13,17,2,1,0,0,1,0,0,0,,17,
"n,n-diethyl-2,2,2-trifluoroethanamine",C6H12F3N1,037174-09-7,CCN(CC)CC(F)(F)F,"hansch,c et al. (1995) ",1.88,6,12,1,0,0,0,3,0,0,0,,10,
"ethyl 2-amino-3-(3,4-dihydroxyphenyl)propanoate",C11H15N1O4,037178-37-3,CCOC(=O)C(N)Cc1ccc(O)c(O)c1,"marrel,c et al. (1985) ",0.28,11,15,1,4,0,0,0,0,0,0,,16,
1-[4-(2-methoxyethyl)phenoxy]-3-(propan-2-ylamino)propan-2-ol,C15H25N1O3,037350-58-6,COCCc1ccc(OCC(O)CNC(C)C)cc1,"hansch,c et al. (1995) ",1.88,15,25,1,3,0,0,0,0,0,0,,19,
"2-[(2e)-2-[(5-nitro-1,3-thiazol-2-yl)imino]-1,3-thiazolidin-3-yl]ethyl acetate",C10H12N4O4S2,037427-69-3,CC(=O)OCCN1CCSC1=Nc2sc(cn2)[N+]([O-])=O,"hansch,c & leo,aj (1985) ",1.88,10,12,4,4,2,0,0,0,0,0,,20,
n-[3-acetyl-4-[2-hydroxy-3-(propan-2-ylamino)propoxy]phenyl]butanamide,C18H28N2O4,037517-30-9,CCCC(=O)Nc1ccc(OCC(O)CNC(C)C)c(c1)C(C)=O,"hansch,c et al. (1995) ",1.71,18,28,2,4,0,0,0,0,0,0,,24,
"1,1,1-trifluoro-n-(4-methylphenyl)methanesulfonamide",C8H8F3N1O2S1,037595-73-6,Cc1ccc(N[S](=O)(=O)C(F)(F)F)cc1,"hansch,c et al. (1995) ",3.6,8,8,1,2,1,0,3,0,0,0,,15,
methyl 1-methylpyrrole-2-carboxylate,C7H9N1O2,037619-24-2,COC(=O)c1cccn1C,"yamagami,c et al. (1994) ",1.8,7,9,1,2,0,0,0,0,0,0,,10,
"n-(2,3-dihydro-1h-inden-2-yl)-n',n'-diethyl-n-phenylpropane-1,3-diamine",C22H30N2,037640-71-4,CCN(CC)CCCN(C1Cc2ccccc2C1)c3ccccc3,"hansch,c et al. (1995) ",4.86,22,30,2,0,0,0,0,0,0,0,,24,
"2,2',4-trichlorobiphenyl",C12H7Cl3,037680-66-3,Clc1ccc(c(Cl)c1)c2ccccc2Cl,"hansch,c et al. (1995) ",5.76,12,7,0,0,0,0,0,3,0,0,,15,
"acetamide, 2,2-dichloro-n,n-di-2-propenyl-",C8H11Cl2N1O1,037764-25-3,ClC(Cl)C(=O)N(CC=C)CC=C,"tomlin,c (1994) ",1.84,8,11,1,1,0,0,0,2,0,0,,12,
"3,6-bis(methylsulfanyl)pyridazine",C6H8N2S2,037813-54-0,CSc1ccc(SC)nn1,"hansch,c et al. (1995) ",1.85,6,8,2,0,2,0,0,0,0,0,,10,
6-ethoxy-1h-indole,C10H11N1O1,037865-86-4,CCOc1ccc2cc[nH]c2c1,"hansch,c et al. (1995) ",2.53,10,11,1,1,0,0,0,0,0,0,,12,
"l-leucine, n-[n-[n-[1-oxo-5-(7h-purin-6-ylthio)p",C22H33N7O5S1,037941-84-7,CCOC(=O)C(CC(C)C)NC(=O)CNC(=O)CNC(=O)CCCCSC1=NC=NC2=C1NC=N2,sangster (1993) ,1.07,22,33,7,5,1,0,0,0,0,0,,35,
"phenylacetic acid,2-(2'-me-3'-cl)anilino",C15H14Cl1N1O2,037984-36-4,Cc1c(Nc2c(CC(=O)(O))cccc2)cccc1Cl,"hansch,c et al. (1995) ",4.64,15,14,1,2,0,0,0,1,0,0,,19,
3-pyridin-2-ylisoquinolin-1-amine,C14H11N3,037989-04-1,Nc1nc(cc2ccccc12)c3ccccn3,sangster (1993) ,2.74,14,11,3,0,0,0,0,0,0,0,,17,
2-ethoxypyrazine,C6H8N2O1,038028-67-0,CCOc1cnccn1,"yamagami,c et al. (1990a) ",1.28,6,8,2,1,0,0,0,0,0,0,,9,
"2,4-dimethoxy-1-methyl-benzene",C9H12O2,038064-90-3,COc1ccc(C)c(OC)c1,"nakagawa,y et al. (1992) ",2.76,9,12,0,2,0,0,0,0,0,0,,11,
4-[2-[[2-hydroxy-3-(2-methylphenoxy)propyl]amino]ethoxy]benzamide,C19H24N2O4,038103-61-6,Cc1ccccc1OCC(O)CNCCOc2ccc(cc2)C(N)=O,sangster (1993) ,2.22,19,24,2,4,0,0,0,0,0,0,,25,
"hydrazinecarboxamide,n-(2-hydroxyphenyl)-",C7H9N3O2,038191-26-3,Oc1ccccc1NC(=O)NN,"kramer,cr & beck,l (1981) ",0.33,7,9,3,2,0,0,0,0,0,0,,12,
sulindac,C20H17F1O3S1,038194-50-2,CC\1=C(CC(O)=O)c2cc(F)ccc2C1=C\c3ccc(cc3)[S](C)=O,sangster (1993) ,3.42,20,17,0,3,1,0,1,0,0,0,,25,
"betamethasone 17,21-divalerate",C32H45F1O7,038196-44-0,CCCCC(=O)OCC(=O)C1(C(CC2C1(CC(C3(C2CCC4=CC(=O)C=CC43C)F)O)C)C)OC(=O)CCCC,"hansch,c et al. (1995) ",5.26,32,45,0,7,0,0,1,0,0,0,,40,
"piperazine, 1-(4-chlorophenyl)-",C10H13Cl1N2,038212-33-8,Clc1ccc(cc1)N2CCNCC2,"caccia,s et al. (1985) ",2.01,10,13,2,0,0,0,0,1,0,0,,13,
"3,3-dimethyl-7-oxo-6-[[3-oxo-3-(phenoxy)-2-phenylpropanoyl]amino]-4-thia-1-azabicyclo[3.2.0]heptane-2-carboxylic acid",C23H22N2O6S1,038212-89-4,CC1(C)SC2C(NC(=O)C(C(=O)Oc3ccccc3)c4ccccc4)C(=O)N2C1C(O)=O,"hansch,c et al. (1995) ",3.14,23,22,2,6,1,0,0,0,0,0,,32,
"(7,7-dimethyl-2-bicyclo[3.1.1]heptanyl)methanamine",C10H19N1,038235-68-6,CC1(C)C2CCC(CN)C1C2,"griffin,s et al. (1999) ",2.05,10,19,1,0,0,0,0,0,0,0,,11,
pentanehydrazide,C5H12N2O1,038291-82-6,CCCCC(=O)NN,"hansch,c & leo,aj (1985) ",-0.11,5,12,2,1,0,0,0,0,0,0,,8,
"ethyl 4-oxo-6,7,8,9-tetrahydropyrido[1,2-a]pyrimidine-3-carboxylate",C11H14N2O3,038326-36-2,CCOC(=O)C1=CN=C2CCCCN2C1=O,sangster (1994) ,0.15,11,14,2,3,0,0,0,0,0,0,,16,
2-acetyloxyethyl benzoate,C11H12O4,038353-69-4,CC(=O)OCCOC(=O)c1ccccc1,"hansch,c & leo,aj (1985) ",1.85,11,12,0,4,0,0,0,0,0,0,,15,
1-(tert-butylamino)-3-(2-cyclopentylphenoxy)propan-2-ol,C18H29N1O2,038363-40-5,CC(C)(C)NCC(O)COc1ccccc1C2CCCC2,"hansch,c et al. (1995) ",4.15,18,29,1,2,0,0,0,0,0,0,,21,
n(m-clph)-3-n'-piperidinoacetamide,C13H17Cl1N2O1,038367-19-0,Clc1cccc(NC(=O)CN2CCCCC2)c1,"hansch,c & leo,aj (1985) ",3.45,13,17,2,1,0,0,0,1,0,0,,17,
n-(4-nitrophenyl)-2-piperidin-1-ylacetamide,C13H17N3O3,038367-22-5,[O-][N+](=O)c1ccc(NC(=O)CN2CCCCC2)cc1,"hansch,c & leo,aj (1985) ",2.72,13,17,3,3,0,0,0,0,0,0,,19,
"2,2',3,5',6-pentachlorobiphenyl",C12H5Cl5,038379-99-6,Clc1ccc(Cl)c(c1)c2c(Cl)ccc(Cl)c2Cl,"hansch,c et al. (1995) ",6.55,12,5,0,0,0,0,0,5,0,0,,17,
"2,2',4,4',5-pentachlorobiphenyl",C12H5Cl5,038380-01-7,Clc1ccc(c(Cl)c1)c2cc(Cl)c(Cl)cc2Cl,biobyte (1995) ,7.21,12,5,0,0,0,0,0,5,0,0,,17,
"2,2',3,4,5'-pentachlorobiphenyl",C12H5Cl5,038380-02-8,Clc1ccc(Cl)c(c1)c2ccc(Cl)c(Cl)c2Cl,biobyte (1995) ,6.85,12,5,0,0,0,0,0,5,0,0,,17,
"2,3,3',4',6-pentachlorobiphenyl",C12H5Cl5,038380-03-9,Clc1ccc(cc1Cl)c2c(Cl)ccc(Cl)c2Cl,sangster (1994) ,6.22,12,5,0,0,0,0,0,5,0,0,,17,
"2,2',3,4',5',6-pcb",C12H4Cl6,038380-04-0,c1(c2c(Cl)ccc(Cl)c2Cl)cc(Cl)c(Cl)cc1Cl,"hansch,c et al. (1995) ",7.28,12,4,0,0,0,0,0,6,0,0,,18,
"2,2',3,3',4,6'-hexachlorobiphenyl",C12H4Cl6,038380-05-1,Clc1ccc(c(Cl)c1Cl)c2c(Cl)ccc(Cl)c2Cl,biobyte (1995) ,7.04,12,4,0,0,0,0,0,6,0,0,,18,
"2,2',3,3',4,4'-hexachlorobiphenyl",C12H4Cl6,038380-07-3,Clc1ccc(c(Cl)c1Cl)c2ccc(Cl)c(Cl)c2Cl,"hansch,c et al. (1995) ",7.31,12,4,0,0,0,0,0,6,0,0,,18,
"2,3,3',4,4',5-hexachlorobiphenyl",C12H4Cl6,038380-08-4,Clc1ccc(cc1Cl)c2cc(Cl)c(Cl)c(Cl)c2Cl,biobyte (1995) ,7.6,12,4,0,0,0,0,0,6,0,0,,18,
6-nitronaphthalen-1-ol,C10H7N1O3,038397-06-7,Oc1cccc2cc(ccc12)[N+]([O-])=O,biobyte (1995) ,3.5,10,7,1,3,0,0,0,0,0,0,,14,
"2,2',3,3',6,6'-hexachlorobiphenyl",C12H4Cl6,038411-22-2,Clc1ccc(Cl)c(c1Cl)c2c(Cl)ccc(Cl)c2Cl,biobyte (1995) ,7.12,12,4,0,0,0,0,0,6,0,0,,18,
"2,2',6-trichlorobiphenyl",C12H7Cl3,038444-73-4,Clc1ccccc1c2c(Cl)cccc2Cl,"hansch,c et al. (1995) ",5.48,12,7,0,0,0,0,0,3,0,0,,15,
"2,4',6-trichlorobiphenyl",C12H7Cl3,038444-77-8,Clc1ccc(cc1)c2c(Cl)cccc2Cl,"hansch,c et al. (1995) ",5.75,12,7,0,0,0,0,0,3,0,0,,15,
"2,2',3'-trichlorobiphenyl",C12H7Cl3,038444-78-9,Clc1cccc(c1Cl)c2ccccc2Cl,"hansch,c et al. (1995) ",5.31,12,7,0,0,0,0,0,3,0,0,,15,
"2,3',5-trichlorobiphenyl",C12H7Cl3,038444-81-4,Clc1cccc(c1)c2cc(Cl)ccc2Cl,"hansch,c et al. (1995) ",5.76,12,7,0,0,0,0,0,3,0,0,,15,
"2,3,3'-trichlorobiphenyl",C12H7Cl3,038444-84-7,Clc1cccc(c1)c2cccc(Cl)c2Cl,"hansch,c et al. (1995) ",5.57,12,7,0,0,0,0,0,3,0,0,,15,
"2,3,4'-trichlorobiphenyl",C12H7Cl3,038444-85-8,Clc1ccc(cc1)c2cccc(Cl)c2Cl,"hansch,c et al. (1995) ",5.42,12,7,0,0,0,0,0,3,0,0,,15,
"2',3,4-trichlorobiphenyl",C12H7Cl3,038444-86-9,Clc1ccc(cc1Cl)c2ccccc2Cl,"de bruijn,jf et al. (1989) ",5.87,12,7,0,0,0,0,0,3,0,0,,15,
"3,3',5-trichlorobiphenyl",C12H7Cl3,038444-87-0,Clc1cccc(c1)c2cc(Cl)cc(Cl)c2,sangster (1994) ,5.81,12,7,0,0,0,0,0,3,0,0,,15,
"3,4,4'-trichlorobiphenyl",C12H7Cl3,038444-90-5,Clc1ccc(cc1)c2ccc(Cl)c(Cl)c2,daylight (1999) ,5.9,12,7,0,0,0,0,0,3,0,0,,15,
"2,2',3,3'-tetrachlorobiphenyl",C12H6Cl4,038444-93-8,Clc1cccc(c1Cl)c2cccc(Cl)c2Cl,"hansch,c et al. (1995) ",6.18,12,6,0,0,0,0,0,4,0,0,,16,
"ethanone, 1-(4-methylphenyl)-2-(phenylsulfonyl)-",C15H14O3S1,038488-14-1,Cc1ccc(cc1)C(=O)C[S](=O)(=O)c2ccccc2,"wang,l et al. (1993) ",2.7,15,14,0,3,1,0,0,0,0,0,,19,
"ethanone, 1-(4-chlorophenyl)-2-(phenylsulfonyl)-",C14H11Cl1O3S1,038488-19-6,Clc1ccc(cc1)C(=O)C[S](=O)(=O)c2ccccc2,"wang,l et al. (1993) ",2.69,14,11,0,3,1,0,0,1,0,0,,19,
"5-dimethylamino-1,3,6-trimethylpyrimidine-2,4-dione",C9H15N3O2,038507-32-3,CN(C)C1=C(C)N(C)C(=O)N(C)C1=O,pomona (1987) ,0.99,9,15,3,2,0,0,0,0,0,0,,14,
2-chloro-6-methyl-pyrazine,C5H5Cl1N2,038557-71-0,Cc1cncc(Cl)n1,"yamagami,c & takao,n (1991) ",1.04,5,5,2,0,0,0,0,1,0,0,,8,
"propan-2-yl n,n-dimethylcarbamate",C6H13N1O2,038580-89-1,CC(C)OC(=O)N(C)C,"tanaka,m et al. (1985) ",1.38,6,13,1,2,0,0,0,0,0,0,,9,
thiaburimamide,C8H14N4S2,038603-23-5,CNC(=S)NCCSCc1[nH]cnc1,"hansch,c et al. (1995) ",0.16,8,14,4,0,2,0,0,0,0,0,,14,
n-methyl-n'-phenylacetohydrazide,C9H12N2O1,038604-70-5,CN(Nc1ccccc1)C(C)=O,"hansch,c et al. (1995) ",1.31,9,12,2,1,0,0,0,0,0,0,,12,
2-methylsulfonylthiophene,C5H6O2S2,038695-60-2,C[S](=O)(=O)c1sccc1,"hansch,c & leo,aj (1985) ",0.38,5,6,0,2,2,0,0,0,0,0,,9,
4-propyldithiole-3-thione,C6H8S3,038696-40-1,CCCC1=CSSC1=S,"bona,m et al. (1995) ",3.18,6,8,0,0,3,0,0,0,0,0,,9,
"n,n,n',n'-tetramethylpyridazine-3,5-diamine",C8H14N4,038717-44-1,CN(C)c1cnnc(c1)N(C)C,"hansch,c & leo,aj (1985) ",0.84,8,14,4,0,0,0,0,0,0,0,,12,
antor,C16H22Cl1N1O3,038727-55-8,CCOC(=O)CN(C(=O)CCl)c1c(CC)cccc1CC,"hansch,c et al. (1995) ",3.6,16,22,1,3,0,0,0,1,0,0,,21,
"1-(3-methyl-2-nitroimidazol-4-yl)ethane-1,2-diol",C6H9N3O4,039070-09-2,Cn1c(cnc1[N+]([O-])=O)C(O)CO,"hansch,c & leo,aj (1985) ",-0.89,6,9,3,4,0,0,0,0,0,0,,13,
methyl n-(3-methylphenyl)carbamate,C9H11N1O2,039076-18-1,COC(=O)Nc1cccc(C)c1,"takahashi,k et al. (1988) ",2.29,9,11,1,2,0,0,0,0,0,0,,12,
"3,6-dimethylpyrido[2,1-b]pyrimidin-4-one",C10H10N2O1,039080-46-1,CC1=CC=CC2=NC=C(C)C(=O)N12,"hansch,c & leo,aj (1985) ",1.26,10,10,2,1,0,0,0,0,0,0,,13,
"4h-pyrido[1,2-a]pyrimidin-4-one, 6,7,8,9-tetrahy",C10H14N2O1,039080-49-4,C1CCC2=NC(C)=CC(=O)N2C1C,sangster (1993) ,0.67,10,14,2,1,0,0,0,0,0,0,,13,
"3-methylpyrido[2,1-b]pyrimidin-4-one",C9H8N2O1,039080-57-4,CC1=CN=C2C=CC=CN2C1=O,"hansch,c & leo,aj (1985) ",0.77,9,8,2,1,0,0,0,0,0,0,,12,
3-iodobenzohydrazide,C7H7I1N2O1,039115-94-1,NNC(=O)c1cccc(I)c1,"hansch,c et al. (1995) ",1.53,7,7,2,1,0,0,0,0,0,1,,11,
4-iodobenzohydrazide,C7H7I1N2O1,039115-95-2,NNC(=O)c1ccc(I)cc1,"hansch,c et al. (1995) ",1.55,7,7,2,1,0,0,0,0,0,1,,11,
3-bromobenzohydrazide,C7H7Br1N2O1,039115-96-3,NNC(=O)c1cccc(Br)c1,"hansch,c et al. (1995) ",1.26,7,7,2,1,0,0,0,0,1,0,,11,
ethyl pyridazine-4-carboxylate,C7H8N2O2,039123-39-2,CCOC(=O)c1ccnnc1,"yamagami,c et al. (1990) ",0.23,7,8,2,2,0,0,0,0,0,0,,11,
"2,6-dimethylcyclohexan-1-ol",C8H16O1,042846-29-7,CC1CCCC(C)C1O,"funasaki,n et al. (1986) ",2.38,8,16,0,1,0,0,0,0,0,0,,9,
2-methyl-n-propylpropan-1-amine,C7H17N1,039190-66-4,CCCNCC(C)C,"hansch,c et al. (1995) ",2.07,7,17,1,0,0,0,0,0,0,0,,8,
n-propylbutan-2-amine,C7H17N1,039190-67-5,CCCNC(C)CC,"hansch,c et al. (1995) ",1.91,7,17,1,0,0,0,0,0,0,0,,8,
"2-(3,5-dimethoxy-4-propoxyphenyl)ethanamine",C13H21N1O3,039201-78-0,CCCOc1c(OC)cc(CCN)cc1OC,"hansch,c et al. (1995) ",1.7,13,21,1,3,0,0,0,0,0,0,,17,
"2-(4-ethoxy-3,5-dimethoxyphenyl)ethanamine",C12H19N1O3,039201-82-6,CCOc1c(OC)cc(CCN)cc1OC,"hansch,c et al. (1995) ",1.11,12,19,1,3,0,0,0,0,0,0,,16,
2-methoxyquinoxaline,C9H8N2O1,039209-88-6,COc1cnc2ccccc2n1,"hansch,c et al. (1995) ",2.31,9,8,2,1,0,0,0,0,0,0,,12,
"1,2,3,4,7,8-hexachlorodibenzo-p-dioxin",C12H2Cl6O2,039227-28-6,Clc1cc2Oc3c(Cl)c(Cl)c(Cl)c(Cl)c3Oc2cc1Cl,"shiu,wy et al. (1988) ",7.8,12,2,0,2,0,0,0,6,0,0,,20,
1-chlorodibenzo-p-dioxin,C12H7Cl1O2,039227-53-7,Clc1cccc2Oc3ccccc3Oc12,"shiu,wy et al. (1988) ",4.75,12,7,0,2,0,0,0,1,0,0,,15,
2-chlorodibenzo-p-dioxin,C12H7Cl1O2,039227-54-8,Clc1ccc2Oc3ccccc3Oc2c1,"shiu,wy et al. (1988) ",5,12,7,0,2,0,0,0,1,0,0,,15,
"1,2,4-trichlorodibenzo-p-dioxin",C12H5Cl3O2,039227-58-2,Clc1cc(Cl)c2Oc3ccccc3Oc2c1Cl,"shiu,wy et al. (1988) ",6.35,12,5,0,2,0,0,0,3,0,0,,17,
"1,2,3,4,7-pentachlorodibenzo-p-dioxin",C12H3Cl5O2,039227-61-7,Clc1ccc2Oc3c(Cl)c(Cl)c(Cl)c(Cl)c3Oc2c1,"shiu,wy et al. (1988) ",7.4,12,3,0,2,0,0,0,5,0,0,,19,
n-(4-hydroxy-2-methylphenyl)acetamide,C9H11N1O2,039495-15-3,CC(=O)Nc1ccc(O)cc1C,"hansch,c et al. (1995) ",0.17,9,11,1,2,0,0,0,0,0,0,,12,
"piperazine, 1-(2-chlorophenyl)-",C10H13Cl1N2,039512-50-0,Clc1ccccc1N2CCNCC2,"caccia,s et al. (1985) ",2.13,10,13,2,0,0,0,0,1,0,0,,13,
1-(2-methylphenyl)piperazine,C11H16N2,039512-51-1,Cc1ccccc1N2CCNCC2,"caccia,s et al. (1985) ",2.14,11,16,2,0,0,0,0,0,0,0,,13,
"[cyano-[3-(phenoxy)phenyl]methyl] 2,2,3,3-tetramethylcyclopropane-1-carboxylate",C22H23N1O3,064257-84-7,CC1(C)C(C(=O)OC(C#N)c2cccc(Oc3ccccc3)c2)C1(C)C,"tomlin,c (1997) ",6,22,23,1,3,0,0,0,0,0,0,,26,
3-(phenoxy)benzaldehyde,C13H10O2,039515-51-0,O=Cc1cccc(Oc2ccccc2)c1,"hansch,c et al. (1995) ",3.38,13,10,0,2,0,0,0,0,0,0,,15,
1-[7-[2-hydroxy-3-(propan-2-ylamino)propoxy]-1-benzofuran-2-yl]ethanone,C16H21N1O4,039552-01-7,CC(C)NCC(O)COc1cccc2cc(oc12)C(C)=O,"recanatini,m (1992) ",2.02,16,21,1,4,0,0,0,0,0,0,,21,
"2,3,3',4,5,5'-hexachlorobiphenyl",C12H4Cl6,039635-35-3,Clc1cc(Cl)cc(c1)c2cc(Cl)c(Cl)c(Cl)c2Cl,biobyte (1995) ,7.43,12,4,0,0,0,0,0,6,0,0,,18,
"propyl 2-amino-3-(3,4-dihydroxyphenyl)propanoate",C12H17N1O4,039638-51-2,CCCOC(=O)C(N)Cc1ccc(O)c(O)c1,"marrel,c et al. (1985) ",0.76,12,17,1,4,0,0,0,0,0,0,,17,
2-pyridin-4-ylacetamide,C7H8N2O1,039640-62-5,NC(=O)Cc1ccncc1,"hansch,c et al. (1995) ",-0.65,7,8,2,1,0,0,0,0,0,0,,10,
oxolane-2-thione,C4H6O1S1,039700-44-2,S=C1CCCO1,"hansch,c et al. (1995) ",0.6,4,6,0,1,1,0,0,0,0,0,,6,
"[17-(2-hydroxyacetyl)-10,13-dimethyl-3,11-dioxo-1,2,6,7,8,9,12,14,15,16-decahydrocyclopenta[a]phenanthren-17-yl] acetate",C23H30O6,039791-38-3,CC(=O)OC1(CCC2C3CCC4=CC(=O)CCC4(C)C3C(=O)CC12C)C(=O)CO,"hansch,c et al. (1995) ",2.45,23,30,0,6,0,0,0,0,0,0,,29,
oxadiargyl,C15H14Cl2N2O3,039807-15-3,CC(C)(C)C1=NN(C(=O)O1)c2cc(OCC#C)c(Cl)cc2Cl,"tomlin,c (1997) ",3.95,15,14,2,3,0,0,0,2,0,0,,22,