Names,Formula,CAS No,SMILES,Reference,Exp logp,C,H,N,O,S,P,F,Cl,Br,I,,,
"5-[(4-dimethylamino-3,5-dimethoxyphenyl)methyl]pyrimidine-2,4-diamine",C15H21N5O2,056066-63-8,COc1cc(Cc2cnc(N)nc2N)cc(OC)c1N(C)C,pomona (1987) ,1.51,15,21,5,2,0,0,0,0,0,0,,22,
2-(diethoxyphosphorylsulfanylmethylsulfonyl)-2-methylpropane,C9H21O5P1S2,056070-15-6,CCO[P](=O)(OCC)SC[S](=O)(=O)C(C)(C)C,sangster (1994) ,2.76,9,21,0,5,2,1,0,0,0,0,,17,
tert-butylsulfonylmethylsulfanyl-diethoxy-sulfanylidenephosphorane,C9H21O4P1S3,056070-16-7,CCO[P](=S)(OCC)SC[S](=O)(=O)C(C)(C)C,"hansch,c & leo,aj (1985) ",2.48,9,21,0,4,3,1,0,0,0,0,,17,
2-f-pentachlorocyclohexane,C6H6Cl5F1,056086-55-6,C1(Cl)C(Cl)C(Cl)C(F)C(Cl)C1Cl,"hansch,c & leo,aj (1985) ",3.19,6,6,0,0,0,0,1,5,0,0,,12,
4-tert-butylbenzamide,C11H15N1O1,056108-12-4,CC(C)(C)c1ccc(cc1)C(N)=O,"nakagawa,y et al. (1992) ",2.51,11,15,1,1,0,0,0,0,0,0,,13,
2-propan-2-ylbenzamide,C10H13N1O1,056177-33-4,CC(C)c1ccccc1C(N)=O,"nakagawa,y et al. (1992) ",1.39,10,13,1,1,0,0,0,0,0,0,,12,
"7,9-diazaspiro[4.5]decane-6,8,10-trione",C8H10N2O3,056209-30-4,O=C1NC(=O)C2(CCCC2)C(=O)N1,"prankerd,rj & mckeown,rh (1992) ",0.24,8,10,2,3,0,0,0,0,0,0,,13,
3-[4-[(3-methylphenyl)amino]pyridin-3-yl]sulfonyl-1-propan-2-ylurea,C16H20N4O3S1,056211-40-6,CC(C)NC(=O)N[S](=O)(=O)c1cnccc1Nc2cccc(C)c2,biobyte starlist (2009) ,3.37,16,20,4,3,1,0,0,0,0,0,,24,
"2-ethylsulfanyl-6-(hydroxymethyl)oxane-3,4,5-triol",C8H16O5S1,056245-60-4,CCSC1OC(CO)C(O)C(O)C1O,sangster (1993) ,-1.51,8,16,0,5,1,0,0,0,0,0,,14,
tr-1-no-1-(2-clet)-3(2-ohcyhex)urea,C9H16Cl1N3O3,058494-43-2,ClCCN(C(=O)NC1CCCCC1O)N=O,"hansch,c et al. (1995) ",1.34,9,16,3,3,0,0,0,1,0,0,,16,
"n,n,6-trimethylpyrazin-2-amine",C7H11N3,056343-48-7,CN(C)c1cncc(C)n1,"yamagami,c et al. (1991) ",1.57,7,11,3,0,0,0,0,0,0,0,,10,
"3,3',4,4'-tetrachlorobiphenyl ether",C12H6Cl4O1,056348-72-2,Clc1ccc(Oc2ccc(Cl)c(Cl)c2)cc1Cl,"kurz,j & ballschmiter,k (1999) ",6.36,12,6,0,1,0,0,0,4,0,0,,17,
(2-methylphenyl) 4-amino-2-hydroxybenzoate,C14H13N1O3,056356-13-9,Cc1ccccc1OC(=O)c2ccc(N)cc2O,"hansch,c et al. (1995) ",3.14,14,13,1,3,0,0,0,0,0,0,,18,
(3-methylphenyl) 4-amino-2-hydroxybenzoate,C14H13N1O3,056356-14-0,Cc1cccc(OC(=O)c2ccc(N)cc2O)c1,"hansch,c et al. (1995) ",3.64,14,13,1,3,0,0,0,0,0,0,,18,
(4-methylphenyl) 4-amino-2-hydroxybenzoate,C14H13N1O3,056356-15-1,Cc1ccc(OC(=O)c2ccc(N)cc2O)cc1,"hansch,c et al. (1995) ",3.38,14,13,1,3,0,0,0,0,0,0,,18,
"(2,6-dimethylphenyl) 4-amino-2-hydroxybenzoate",C15H15N1O3,056356-16-2,Cc1cccc(C)c1OC(=O)c2ccc(N)cc2O,sangster (1993) ,3.88,15,15,1,3,0,0,0,0,0,0,,19,
(2-methoxyphenyl) 4-amino-2-hydroxybenzoate,C14H13N1O4,056356-17-3,COc1ccccc1OC(=O)c2ccc(N)cc2O,"hansch,c et al. (1995) ",2.88,14,13,1,4,0,0,0,0,0,0,,19,
(3-methoxyphenyl) 4-amino-2-hydroxybenzoate,C14H13N1O4,056356-18-4,COc1cccc(OC(=O)c2ccc(N)cc2O)c1,"hansch,c et al. (1995) ",3.25,14,13,1,4,0,0,0,0,0,0,,19,
(4-propan-2-ylphenyl) 4-amino-2-hydroxybenzoate,C16H17N1O3,056356-19-5,CC(C)c1ccc(OC(=O)c2ccc(N)cc2O)cc1,"hansch,c et al. (1995) ",4.12,16,17,1,3,0,0,0,0,0,0,,20,
(2-propan-2-ylphenyl) 4-amino-2-hydroxybenzoate,C16H17N1O3,056356-20-8,CC(C)c1ccccc1OC(=O)c2ccc(N)cc2O,"hansch,c et al. (1995) ",4.28,16,17,1,3,0,0,0,0,0,0,,20,
(3-aminophenyl) 4-amino-2-hydroxybenzoate,C13H12N2O3,056356-23-1,Nc1cccc(OC(=O)c2ccc(N)cc2O)c1,"hansch,c et al. (1995) ",2.08,13,12,2,3,0,0,0,0,0,0,,18,
(4-aminophenyl) 4-amino-2-hydroxybenzoate,C13H12N2O3,056356-24-2,Nc1ccc(OC(=O)c2ccc(N)cc2O)cc1,"hansch,c et al. (1995) ",2.04,13,12,2,3,0,0,0,0,0,0,,18,
(2-fluorophenyl) 4-amino-2-hydroxybenzoate,C13H10F1N1O3,056356-25-3,Nc1ccc(c(O)c1)C(=O)Oc2ccccc2F,"hansch,c et al. (1995) ",3.29,13,10,1,3,0,0,1,0,0,0,,18,
(3-fluorophenyl) 4-amino-2-hydroxybenzoate,C13H10F1N1O3,056356-26-4,Nc1ccc(c(O)c1)C(=O)Oc2cccc(F)c2,"hansch,c et al. (1995) ",3.42,13,10,1,3,0,0,1,0,0,0,,18,
(4-fluorophenyl) 4-amino-2-hydroxybenzoate,C13H10F1N1O3,056356-27-5,Nc1ccc(c(O)c1)C(=O)Oc2ccc(F)cc2,"hansch,c et al. (1995) ",3.27,13,10,1,3,0,0,1,0,0,0,,18,
2-chlorophenyl 4-aminosalicylate,C13H10Cl1N1O3,056356-28-6,Nc1ccc(c(O)c1)C(=O)Oc2ccccc2Cl,"hansch,c et al. (1995) ",3.72,13,10,1,3,0,0,0,1,0,0,,18,
3-chlorophenyl 4-aminosalicylate,C13H10Cl1N1O3,056356-29-7,Nc1ccc(c(O)c1)C(=O)Oc2cccc(Cl)c2,"hansch,c et al. (1995) ",3.9,13,10,1,3,0,0,0,1,0,0,,18,
4-chlorophenyl 4-aminosalicylate,C13H10Cl1N1O3,056356-30-0,Nc1ccc(c(O)c1)C(=O)Oc2ccc(Cl)cc2,"hansch,c et al. (1995) ",3.6,13,10,1,3,0,0,0,1,0,0,,18,
(2-bromophenyl) 4-amino-2-hydroxybenzoate,C13H10Br1N1O3,056356-31-1,Nc1ccc(c(O)c1)C(=O)Oc2ccccc2Br,"hansch,c et al. (1995) ",3.74,13,10,1,3,0,0,0,0,1,0,,18,
(3-bromophenyl) 4-amino-2-hydroxybenzoate,C13H10Br1N1O3,056356-32-2,Nc1ccc(c(O)c1)C(=O)Oc2cccc(Br)c2,"hansch,c et al. (1995) ",3.84,13,10,1,3,0,0,0,0,1,0,,18,
(4-bromophenyl) 4-amino-2-hydroxybenzoate,C13H10Br1N1O3,056356-33-3,Nc1ccc(c(O)c1)C(=O)Oc2ccc(Br)cc2,"hansch,c et al. (1995) ",3.46,13,10,1,3,0,0,0,0,1,0,,18,
[3-(trifluoromethyl)phenyl] 4-amino-2-hydroxybenzoate,C14H10F3N1O3,056356-34-4,Nc1ccc(c(O)c1)C(=O)Oc2cccc(c2)C(F)(F)F,"hansch,c et al. (1995) ",3.61,14,10,1,3,0,0,3,0,0,0,,21,
3(cf3-meo)pentachlorocyclohexane,C8H8Cl5F3O1,056400-11-4,C(OC1C(Cl)C(Cl)C(Cl)C(Cl)C1Cl)C(F)(F)F,"hansch,c & leo,aj (1985) ",4.15,8,8,0,1,0,0,3,5,0,0,,17,
"1,2-dimeo tetrachlorocyclohexane",C8H12Cl4O2,060132-40-3,COC1C(OC)C(Cl)C(Cl)C(Cl)C1Cl,"hansch,c & leo,aj (1985) ",2.55,8,12,0,2,0,0,0,4,0,0,,14,
1-home pentachlorocyclohexane,C7H9Cl5O1,056400-43-2,C(O)C1C(Cl)C(Cl)C(Cl)C(Cl)C1Cl,"hansch,c & leo,aj (1985) ",2.94,7,9,0,1,0,0,0,5,0,0,,13,
1(cf3-meo)pentachlorocyclohexane,C8H8Cl5F3O1,056421-36-4,COC1(C(F)(F)F)C(Cl)C(Cl)C(Cl)C(Cl)C1Cl,"hansch,c & leo,aj (1985) ",4.06,8,8,0,1,0,0,3,5,0,0,,17,
2-bromopyrazine,C4H3Br1N2,056423-63-3,Brc1cnccn1,"yamagami,c et al. (1990a) ",0.93,4,3,2,0,0,0,0,0,1,0,,7,
2-methyl-1-pyrimidin-5-yl-1-[4-(trifluoromethoxy)phenyl]propan-1-ol,C15H15F3N2O2,056425-91-3,CC(C)C(O)(c1ccc(OC(F)(F)F)cc1)c2cncnc2,"tomlin,c (1994) ",3.34,15,15,2,2,0,0,3,0,0,0,,22,
"n-methyl-2,6-dichloroaniline",C7H7Cl2N1,056462-00-1,CNc1c(Cl)cccc1Cl,"hansch,c et al. (1995) ",2.91,7,7,1,0,0,0,0,2,0,0,,10,
n-[[1-[(4-fluorophenyl)methyl]pyrrolidin-2-yl]methyl]-2-methoxy-5-sulfamoylbenzamide,C20H24F1N3O4S1,056488-61-0,COc1ccc(cc1C(=O)NCC2CCCN2Cc3ccc(F)cc3)[S](N)(=O)=O,"hansch,c et al. (1995) ",2.46,20,24,3,4,1,0,1,0,0,0,,29,
"5-[(4-bromo-3,5-dimethoxyphenyl)methyl]pyrimidine-2,4-diamine",C13H15Br1N4O2,056518-41-3,COc1cc(Cc2cnc(N)nc2N)cc(OC)c1Br,"hansch,c & leo,aj (1985) ",2.01,13,15,4,2,0,0,0,0,1,0,,20,
"24-nh2pyrimidine,5(3,5meo-4-cl)benzyl",C13H15Cl1N4O2,056518-45-7,Clc1c(OC)cc(Cc2cnc(N)nc2N)cc1OC,"hansch,c & leo,aj (1985) ",1.87,13,15,4,2,0,0,0,1,0,0,,20,
beta-chlordene,C10H6Cl6,056534-03-3,ClC1C2C(Cl)=C(Cl)C3(Cl)C(Cl)=C(Cl)C(C2)C13,"simpson,cd et al. (1995) ",5.62,10,6,0,0,0,0,0,6,0,0,,16,
"5-fluoro-n-methyl-2,4-dioxopyrimidine-1-carboxamide",C6H6F1N3O3,056563-18-9,CNC(=O)N1C=C(F)C(=O)NC1=O,sangster (1993) ,-0.2,6,6,3,3,0,0,1,0,0,0,,13,
1-methyl-5-(phenylmethylsulfanyl)tetrazole,C9H10N4S1,056610-79-8,Cn1nnnc1SCc2ccccc2,pomona (1987) ,1.63,9,10,4,0,1,0,0,0,0,0,,14,
"propanedinitrile, [(5-bromo-2-furanyl)methylene]",C8H3Br1N2O1,056656-96-3,Brc1ccc(C=C(C(#N))C(#N))o1,"balaz,s et al. (1985) ",2.16,8,3,2,1,0,0,0,0,1,0,,12,
repromicin,C31H51N1O8,056689-42-0,CCC1OC(=O)CC(O)C(C)C(OC2OC(C)CC(C2O)N(C)C)C(CC=O)CC(C)C(=O)\C=C\C(=C\C1C)C,"mcfarland,jw et al. (1997) ",2.49,31,51,1,8,0,0,0,0,0,0,,40,
josamycin,C42H69N1O15,056689-45-3,CO[C@H]1[C@@H](CC(=O)O[C@H](C)C/C=C/C=C/[C@H](O)[C@H](C)C[C@H](CC=O)[C@@H]1O[C@@H]2O[C@H](C)[C@@H](O[C@H]3C[C@@](C)(O)[C@@H](OC(=O)CC(C)C)[C@H](C)O3)[C@@H]([C@H]2O)N(C)C)OC(C)=O,"hansch,c et al. (1995) ",2.39,42,69,1,15,0,0,0,0,0,0,,58,
2-acetamido-3-methylpentanamide,C8H16N2O2,056711-06-9,CCC(C)C(NC(C)=O)C(N)=O,"hansch,c & leo,aj (1985) ",-0.03,8,16,2,2,0,0,0,0,0,0,,12,
7-[[2-(cyanomethylsulfanyl)acetyl]amino]-7-methoxy-3-[(1-methyltetrazol-5-yl)sulfanylmethyl]-8-oxo-5-thia-1-azabicyclo[4.2.0]oct-2-ene-2-carboxylic acid,C15H17N7O5S3,056796-20-4,COC1(NC(=O)CSCC#N)C2SCC(=C(N2C1=O)C(O)=O)CSc3nnnn3C,sangster (1993) ,-0.6,15,17,7,5,3,0,0,0,0,0,,30,
(3-tert-butylphenyl) diphenyl phosphate,C22H23O4P1,056803-37-3,CC(C)(C)c1cccc(O[P](=O)(Oc2ccccc2)Oc3ccccc3)c1,"saeger,vw et al. (1979) ",5.12,22,23,0,4,0,1,0,0,0,0,,27,
"thieno(23d)-pyrimidine,4(meamino)",C7H7N3S1,056844-20-3,CNc1ncnc2sccc12,"hansch,c & leo,aj (1985) ",1.43,7,7,3,0,1,0,0,0,0,0,,11,
"2h-1-benzopyran-2-one, 3-(acetyloxy)-1-[2-(acety",C21H19Cl1N2O5,056875-82-2,CC(=O)OCCN1C(=O)C(OC(=O)C)N=C(c3ccccc3)c2c1ccc(Cl)c2,sangster (1993) ,2.74,21,19,2,5,0,0,0,1,0,0,,29,
"2h-1,4-benzodiazepin-2-one, 3-(acetyloxy)-1-[3-(",C22H21Cl1N2O5,056875-83-3,CC(=O)OCCCN1C(=O)C(OC(=O)C)N=C(c3ccccc3)c2c1ccc(Cl)c2,sangster (1993) ,3.08,22,21,2,5,0,0,0,1,0,0,,30,
"7cl-1,3h2-1-clet-3-eto-5ph-1,4-benzodiazepin-2-o",C19H18Cl2N2O2,056875-86-6,CCOC1N=C(c3ccccc3)c2c(ccc(Cl)c2)N(CCCl)C1(=O),biobyte starlist (2009) ,3.95,19,18,2,2,0,0,0,2,0,0,,25,
"[2-(9-fluoro-11,17-dihydroxy-10,13,16-trimethyl-3-oxo-6,7,8,11,12,14,15,16-octahydrocyclopenta[a]phenanthren-17-yl)-2-oxoethyl] butanoate",C26H35F1O6,056933-60-9,CCCC(=O)OCC(=O)C1(O)C(C)CC2C3CCC4=CC(=O)C=CC4(C)C3(F)C(O)CC12C,"hansch,c et al. (1995) ",3.55,26,35,0,6,0,0,1,0,0,0,,33,
"3,4,5-trichlorocatechol",C6H3Cl3O2,056961-20-7,Oc1cc(Cl)c(Cl)c(Cl)c1O,sangster (1994) ,3.71,6,3,0,2,0,0,0,3,0,0,,11,
"3-[3-acetyl-4-[3-(tert-butylamino)-2-hydroxypropoxy]phenyl]-1,1-diethylurea",C20H33N3O4,056980-93-9,CCN(CC)C(=O)Nc1ccc(OCC(O)CNC(C)(C)C)c(c1)C(C)=O,sangster (1994) ,1.92,20,33,3,4,0,0,0,0,0,0,,27,
trichlorocyclohexene (345),C6H7Cl3,056994-25-3,C1CC(Cl)C(Cl)C(Cl)C=1,"hansch,c & leo,aj (1985) ",2.84,6,7,0,0,0,0,0,3,0,0,,9,
tolclofos-methyl,C9H11Cl2O3P1S1,057018-04-9,CO[P](=S)(OC)Oc1c(Cl)cc(C)cc1Cl,"tomlin,c (1994) ",4.56,9,11,0,3,1,1,0,2,0,0,,16,
"mc-15608 [2,4'-dicl-4-cf3-3'-co2me-diph ether]",C15H9Cl2F3O3,057025-76-0,COC(=O)c1c(Cl)ccc(Oc2c(Cl)cc(C(F)(F)F)cc2)c1,"nandihalli,ub et al. (1993) ",5.04,15,9,0,3,0,0,3,2,0,0,,23,
"3,4,5-trichloro-2-methoxyphenol",C7H5Cl3O2,057057-83-7,COc1c(O)cc(Cl)c(Cl)c1Cl,"hansch,c et al. (1995) ",3.77,7,5,0,2,0,0,0,3,0,0,,12,
"4-(2,5-dioxopyrrol-1-yl)butanoic acid",C8H9N1O4,057078-98-5,OC(=O)CCCN1C(=O)C=CC1=O,"hansch,c et al. (1995) ",0.4,8,9,1,4,0,0,0,0,0,0,,13,
"5-(2,5-dioxopyrrol-1-yl)pentanoic acid",C9H11N1O4,057078-99-6,OC(=O)CCCCN1C(=O)C=CC1=O,"hansch,c et al. (1995) ",0.6,9,11,1,4,0,0,0,0,0,0,,14,
"8-(2,5-dioxopyrrol-1-yl)octanoic acid",C12H17N1O4,057079-00-2,OC(=O)CCCCCCCN1C(=O)C=CC1=O,"hansch,c & leo,aj (1985) ",1.99,12,17,1,4,0,0,0,0,0,0,,17,
"ethyl 3-(2,5-dioxopyrrol-1-yl)propanoate",C9H11N1O4,057079-05-7,CCOC(=O)CCN1C(=O)C=CC1=O,"hansch,c & leo,aj (1985) ",0.41,9,11,1,4,0,0,0,0,0,0,,14,
"ethyl 6-(2,5-dioxopyrrol-1-yl)hexanoate",C12H17N1O4,057079-07-9,CCOC(=O)CCCCCN1C(=O)C=CC1=O,"hansch,c & leo,aj (1985) ",1.5,12,17,1,4,0,0,0,0,0,0,,17,
"dibenzofuran, 2,4,6,7-tetrachloro-",C12H4Cl4O1,057117-38-1,Clc1cc(Cl)c2oc3c(Cl)c(Cl)ccc3c2c1,"sijm,dthm et al. (1989) ",6.25,12,4,0,1,0,0,0,4,0,0,,17,
"dibenzofuran,2,3,4,6,7-pentachloro",C12H3Cl5O1,057117-43-8,Clc1c(Cl)c(Cl)c2c(oc3c(Cl)c(Cl)ccc23)c1,biobyte starlist (2009) ,6.47,12,3,0,1,0,0,0,5,0,0,,18,
2-(pyridin-2-ylmethylsulfinyl)-1h-benzimidazole,C13H11N3O1S1,057237-97-5,C1=CC=C2C(=C1)NC(=N2)S(=O)CC3=CC=CC=N3,pomona (1987) ,1.33,13,11,3,1,1,0,0,0,0,0,,18,
4-(cyclohexylamino)-1-naphthalen-1-yloxybutan-2-ol,C20H27N1O2,057281-35-3,OC(CCNC1CCCCC1)COc2cccc3ccccc23,biobyte starlist (2009) ,3.99,20,27,1,2,0,0,0,0,0,0,,23,
"1,4-dimethoxyphthalazine",C10H10N2O2,057315-37-4,COc1nnc(OC)c2ccccc12,"hansch,c et al. (1995) ",2.22,10,10,2,2,0,0,0,0,0,0,,14,
"4-methyl-5,8-dihydroxyquinoline",C10H9N1O2,057334-34-6,Cc1ccnc2c(O)ccc(O)c12,"hansch,c et al. (1995) ",1.59,10,9,1,2,0,0,0,0,0,0,,13,
5-methoxyquinolin-8-ol,C10H9N1O2,057334-35-7,COc1ccc(O)c2ncccc12,"hansch,c et al. (1995) ",2.06,10,9,1,2,0,0,0,0,0,0,,13,
4-chloro-8-quinolinol,C9H6Cl1N1O1,057334-36-8,Oc1cccc2c(Cl)ccnc12,"hansch,c et al. (1995) ",2.67,9,6,1,1,0,0,0,1,0,0,,12,
5-methoxy-4-methylquinolin-8-ol,C11H11N1O2,057334-38-0,COc1ccc(O)c2nccc(C)c12,"hansch,c et al. (1995) ",2.75,11,11,1,2,0,0,0,0,0,0,,14,
"2',5'-dichlorobenzoguanamine",C9H7Cl2N5,057381-26-7,c1(c2cc(Cl)ccc2Cl)nc(N)nc(N)n1,"hansch,c & leo,aj (1985) ",1.97,9,7,5,0,0,0,0,2,0,0,,16,
"6-(2,5-dibromophenyl)-1,3,5-triazine-2,4-diamine",C9H7Br2N5,057381-42-7,Nc1nc(N)nc(n1)c2cc(Br)ccc2Br,"hansch,c & leo,aj (1985) ",2.09,9,7,5,0,0,0,0,0,2,0,,16,
2'-cl-5'-bromobenzoguanamine,C9H7Br1Cl1N5,057381-45-0,Brc1ccc(Cl)c(c2nc(N)nc(N)n2)c1,"hansch,c & leo,aj (1985) ",2.04,9,7,5,0,0,0,0,1,1,0,,16,
"2',4'-dichlorobenzoguanamine",C9H7Cl2N5,057381-46-1,Clc2cc(Cl)ccc2c1nc(N)nc(N)n1,"hansch,c & leo,aj (1985) ",2.07,9,7,5,0,0,0,0,2,0,0,,16,
2-(acetyl-methylamino)ethyl benzoate,C12H15N1O3,057440-16-1,CN(CCOC(=O)c1ccccc1)C(C)=O,"nielsen,nm & bundgaard,h (1988) ",1.24,12,15,1,3,0,0,0,0,0,0,,16,
2-methoxyethyl benzoate,C10H12O3,057453-98-2,COCCOC(=O)c1ccccc1,"hansch,c et al. (1995) ",1.78,10,12,0,3,0,0,0,0,0,0,,13,
(3-iodophenyl)methanol,C7H7I1O1,057455-06-8,OCc1cccc(I)c1,"miyake,k et al. (1987) ",2.55,7,7,0,1,0,0,0,0,0,1,,9,
"[11-hydroxy-17-(2-hydroxyacetyl)-10,13-dimethyl-3-oxo-2,6,7,8,9,11,12,14,15,16-decahydro-1h-cyclopenta[a]phenanthren-17-yl] pentanoate",C26H38O6,057524-89-7,CCCCC(=O)OC1(CCC2C3CCC4=CC(=O)CCC4(C)C3C(O)CC12C)C(=O)CO,"hansch,c et al. (1995) ",3.79,26,38,0,6,0,0,0,0,0,0,,32,
2-chloro-4-nitro-1h-imidazole,C3H2Cl1N3O2,057531-37-0,[O-][N+](=O)c1c[nH]c(Cl)n1,"suwinski,j et al. (1985) ",0.66,3,2,3,2,0,0,0,1,0,0,,9,
"3,4-dichloro-n-nitrosopiperidine",C5H8Cl2N2O1,057541-72-7,ClC1CCN(CC1Cl)N=O,"hansch,c et al. (1995) ",1.04,5,8,2,1,0,0,0,2,0,0,,10,
"3,4-dibromo-1-nitrosopiperidine",C5H8Br2N2O1,057541-73-8,BrC1CCN(CC1Br)N=O,"hansch,c et al. (1995) ",1.23,5,8,2,1,0,0,0,0,2,0,,10,
"ohet-(3,4,5-trimeo)phenyl sulfone",C11H16O6S1,057553-97-6,COc1c(OC)c(OC)cc(S(=O)(=O)CCO)c1,"hansch,c & leo,aj (1985) ",0.18,11,16,0,6,1,0,0,0,0,0,,18,
"1,2,3-trimethoxy-5-prop-2-enylsulfonylbenzene",C12H16O5S1,057553-99-8,COc1cc(cc(OC)c1OC)[S](=O)(=O)CC=C,"hansch,c & leo,aj (1985) ",1.34,12,16,0,5,1,0,0,0,0,0,,18,
"1-[2-(3,4,5-trimethoxyphenyl)sulfonylethyl]piperidine",C16H25N1O5S1,057554-04-8,COc1cc(cc(OC)c1OC)[S](=O)(=O)CCN2CCCCC2,"hansch,c & leo,aj (1985) ",1.6,16,25,1,5,1,0,0,0,0,0,,23,
(n-morpholinyl)et-(345-meo)ph sulfone,C15H23N1O6S1,057554-05-9,COc1c(OC)c(OC)cc(S(=O)(=O)CCN2CCOCC2)c1,"hansch,c & leo,aj (1985) ",1.29,15,23,1,6,1,0,0,0,0,0,,23,
"methyl 2-[(2,6-dimethylphenyl)-(furan-2-carbonyl)amino]propanoate",C17H19N1O4,057646-30-7,COC(=O)C(C)N(C(=O)c1occc1)c2c(C)cccc2C,"hansch,c et al. (1995) ",2.61,17,19,1,4,0,0,0,0,0,0,,22,
methyl 2-sulfamoylbenzoate,C8H9N1O4S1,057683-71-3,COC(=O)c1ccccc1[S](N)(=O)=O,"wei,l et al. (1999) ",0.01,8,9,1,4,1,0,0,0,0,0,,14,
(4-methoxyphenyl)-piperidin-1-ylmethanone,C13H17N1O2,057700-94-4,COc1ccc(cc1)C(=O)N2CCCCC2,"suryanarayana,mvs et al. (1991) ",2.4,13,17,1,2,0,0,0,0,0,0,,16,
"1,2-bis(2-(2-meo-eto)-eto)benzene",C16H26O6,057721-93-4,O(CCOCCOC)c1ccccc1OCCOCCOC,"stolwijk,tb et al. (1989) ",0.76,16,26,0,6,0,0,0,0,0,0,,22,
"1,2-bis[2-[2-(2-methoxyethoxy)ethoxy]ethoxy]benzene",C20H34O8,057721-95-6,COCCOCCOCCOc1ccccc1OCCOCCOCCOC,"stolwijk,tb et al. (1989) ",0.38,20,34,0,8,0,0,0,0,0,0,,28,
"3-ethyl-6-methylpyrido[2,1-b]pyrimidin-4-one",C11H12N2O1,057773-19-0,CCC1=CN=C2C=CC=C(C)N2C1=O,"hansch,c & leo,aj (1985) ",1.79,11,12,2,1,0,0,0,0,0,0,,14,
1-(9h-carbazol-4-yloxy)-3-(propan-2-ylamino)propan-2-ol,C18H22N2O2,057775-29-8,CC(C)NCC(O)COc1cccc2[nH]c3ccccc3c12,"hansch,c et al. (1995) ",3.59,18,22,2,2,0,0,0,0,0,0,,22,
domperidone,C22H24Cl1N5O2,057808-66-9,Clc1ccc2N(C3CCN(CCCN4C(=O)Nc5ccccc45)CC3)C(=O)Nc2c1,"el tayer,n et al. (1985) ",3.9,22,24,5,2,0,0,0,1,0,0,,30,
"methyl 2-[(2,6-dimethylphenyl)-(2-methoxyacetyl)amino]propanoate",C15H21N1O4,070630-17-0,COCC(=O)N(C(C)C(=O)OC)c1c(C)cccc1C,"tomlin,c (1997) ",1.71,15,21,1,4,0,0,0,0,0,0,,20,
5-methyl-4-phenyldithiol-3-one,C10H8O1S2,057913-60-7,CC1=C(C(=O)SS1)c2ccccc2,"bona,m et al. (1995) ",2.93,10,8,0,1,2,0,0,0,0,0,,13,
3-amino-1-propan-2-ylurea,C4H11N3O1,057930-20-8,CC(C)NC(=O)NN,"hansch,c & leo,aj (1985) ",-1.3,4,11,3,1,0,0,0,0,0,0,,8,
cymoxanil,C7H10N4O3,057966-95-7,CCNC(=O)NC(=O)\C(=N\OC)C#N,"tomlin,c (1997); ph 5 ",0.59,7,10,4,3,0,0,0,0,0,0,,14,
"ethyl n-[2,5-bis(aziridin-1-yl)-4-(ethoxycarbonylamino)-3,6-dioxo-1-cyclohexa-1,4-dienyl]carbamate",C16H20N4O6,057998-68-2,CCOC(=O)NC1=C(N2CC2)C(=O)C(=C(N3CC3)C1=O)NC(=O)OCC,"hansch,c et al. (1995) ",-0.02,16,20,4,6,0,0,0,0,0,0,,26,
pyrazolate,C19H16Cl2N2O4S1,058011-68-0,[O-]C(=O)c1cc[nH]n1,"saito,h et al. (1993) ",3.9,19,16,2,4,1,0,0,2,0,0,,28,
"n-ethyl-2,2,2-trifluoroethanamine",C4H8F3N1,058171-47-4,CCNCC(F)(F)F,pomona (1987) ,0.74,4,8,1,0,0,0,3,0,0,0,,8,
"1,4-dimethylquinoxaline-2,3-dione",C10H10N2O2,058175-07-8,CN1C(=O)C(=O)N(C)c2ccccc12,"hansch,c & leo,aj (1985) ",0.08,10,10,2,2,0,0,0,0,0,0,,14,
itanoxone,C17H13Cl1O3,058182-63-1,OC(=O)C(=C)CC(=O)c1ccc(cc1)c2ccccc2Cl,"hansch,c et al. (1995) ",3.32,17,13,0,3,0,0,0,1,0,0,,21,
4-acetamidobenzamide,C9H10N2O2,058202-83-8,CC(=O)Nc1ccc(cc1)C(N)=O,"nakagawa,y et al. (1992) ",0.01,9,10,2,2,0,0,0,0,0,0,,13,
n-(3-cyanophenyl)acetamide,C9H8N2O1,058202-84-9,CC(=O)Nc1cccc(c1)C#N,pomona (1987) ,1.2,9,8,2,1,0,0,0,0,0,0,,12,
"piperidine, 1-(3-methyl-1-phenylcyclohexyl)-, ci",C18H27N1,058283-42-4,CC1CC(N3CCCCC3)(c2ccccc2)CCC1,sangster (1993) ,5.86,18,27,1,0,0,0,0,0,0,0,,19,
"(3,3,5-trimethylcyclohexyl) 2-(4-fluorophenoxy)acetate",C17H23F1O3,058327-09-6,CC1CC(CC(C)(C)C1)OC(=O)COc2ccc(F)cc2,"nicholls,ph (1988) ",1.64,17,23,0,3,0,0,1,0,0,0,,21,
leu-val-leu,C17H33N3O4,058337-01-2,O=C(C(C(C)C)NC(=O)C(N)CC(C)C)NC(C(=O)O)CC(C)C,biobyte starlist (2009) ,-1.57,17,33,3,4,0,0,0,0,0,0,,24,
methyl 2-thiophen-3-ylacetate,C7H8O2S1,058414-52-1,COC(=O)Cc1cscc1,"hansch,c et al. (1995) ",1.46,7,8,0,2,1,0,0,0,0,0,,10,
n-(4-bromophenyl)-2-piperidin-1-ylacetamide,C13H17Br1N2O1,058479-86-0,Brc1ccc(NC(=O)CN2CCCCC2)cc1,"hansch,c et al. (1995) ",3.57,13,17,2,1,0,0,0,0,1,0,,17,
n-(4-iodophenyl)-2-piperidin-1-ylacetamide,C13H17I1N2O1,058479-87-1,Ic1ccc(NC(=O)CN2CCCCC2)cc1,"hansch,c et al. (1995) ",3.9,13,17,2,1,0,0,0,0,0,1,,17,
n-(2-fluorophenyl)-2-piperidin-1-ylacetamide,C13H17F1N2O1,058479-88-2,Fc1ccccc1NC(=O)CN2CCCCC2,"hansch,c et al. (1995) ",2.16,13,17,2,1,0,0,1,0,0,0,,17,
n-(2-bromophenyl)-2-piperidin-1-ylacetamide,C13H17Br1N2O1,058479-89-3,Brc1ccccc1NC(=O)CN2CCCCC2,"hansch,c et al. (1995) ",2.94,13,17,2,1,0,0,0,0,1,0,,17,
n-(3-fluorophenyl)-2-piperidin-1-ylacetamide,C13H17F1N2O1,058479-90-6,Fc1cccc(NC(=O)CN2CCCCC2)c1,"hansch,c et al. (1995) ",2.85,13,17,2,1,0,0,1,0,0,0,,17,
n-(4-methoxyphenyl)-2-piperidin-1-ylacetamide,C14H20N2O2,058479-93-9,COc1ccc(NC(=O)CN2CCCCC2)cc1,sangster (1993) ,2.52,14,20,2,2,0,0,0,0,0,0,,18,
2-(2-methylpropyl)pyridine-4-carbohydrazide,C10H15N3O1,058480-99-2,CC(C)Cc1cc(ccn1)C(=O)NN,"hansch,c et al. (1995) ",1.02,10,15,3,1,0,0,0,0,0,0,,14,
2-aminopyridine-4-carbohydrazide,C6H8N4O1,058481-01-9,NNC(=O)c1ccnc(N)c1,"hansch,c et al. (1995) ",-0.98,6,8,4,1,0,0,0,0,0,0,,11,
2-chloroisoniazid,C6H6Cl1N3O1,058481-04-2,Clc1cc(C(=O)NN)ccn1,"hansch,c et al. (1995) ",0.11,6,6,3,1,0,0,0,1,0,0,,11,
2-phenylpyridine-4-carbohydrazide,C12H11N3O1,058481-06-4,NNC(=O)c1ccnc(c1)c2ccccc2,"hansch,c et al. (1995) ",1.36,12,11,3,1,0,0,0,0,0,0,,16,
5-methyloctan-2-one,C9H18O1,058654-67-4,CCCC(C)CCC(C)=O,"tanii,h & hashimoto,k (1986) ",2.92,9,18,0,1,0,0,0,0,0,0,,10,
"14-benzdiazpin-2-one,3me5-(2clph)7no2",C16H12Cl1N3O3,067027-56-9,Clc3ccccc3C1c2cc(N(=O)(=O))ccc2NC(=O)C(C)N=1,"hansch,c & leo,aj (1985) ",2.72,16,12,3,3,0,0,0,1,0,0,,23,
flamprop,C16H13Cl1F1N1O3,058667-63-3,CC(N(c1ccc(F)c(Cl)c1)C(=O)c2ccccc2)C(O)=O,sangster (1994) ,2.9,16,13,1,3,0,0,1,1,0,0,,22,
5-bromo-2-hydroxy-3-methyl-n-propan-2-ylbenzamide,C11H14Br1N1O2,058708-45-5,CC(C)NC(=O)c1cc(Br)cc(C)c1O,sangster (1993) ,4.19,11,14,1,2,0,0,0,0,1,0,,15,
5-bromo-n-cyclopropyl-2-hydroxy-3-methylbenzamide,C11H12Br1N1O2,058708-46-6,Cc1cc(Br)cc(c1O)C(=O)NC2CC2,sangster (1993) ,3.8,11,12,1,2,0,0,0,0,1,0,,15,