Names,Formula,CAS No,SMILES,Reference,Exp logp,C,H,N,O,S,P,F,Cl,Br,I,,,
mcpb-ethyl,C13H17Cl1O3,010443-70-6,O=C(OCC)CCCOc1ccc(Cl)cc1C,"tomlin,c (1994) ",4.26,13,17,0,3,0,0,0,1,0,0,,17,
"[5-(phenylmethyl)furan-3-yl]methyl 2,2-dimethyl-3-(2-methylprop-1-enyl)cyclopropane-1-carboxylate",C22H26O3,010453-86-8,CC(C)=CC1C(C(=O)OCc2coc(Cc3ccccc3)c2)C1(C)C,daylight (2002) ,6.14,22,26,0,3,0,0,0,0,0,0,,25,
2-hydroxy-2-(4-methoxyphenyl)acetic acid,C9H10O4,010502-44-0,COc1ccc(cc1)C(O)C(O)=O,sangster (1994) ,0.63,9,10,0,4,0,0,0,0,0,0,,13,
"phenylmethyl n,n-dimethylcarbamate",C10H13N1O2,010507-52-5,CN(C)C(=O)OCc1ccccc1,"hansch,c & leo,aj (1985) ",2.16,10,13,1,2,0,0,0,0,0,0,,13,
n-methyl-4-sulfamoylbenzamide,C8H10N2O3S1,010518-85-1,CNC(=O)c1ccc(cc1)[S](N)(=O)=O,"hansch,c & leo,aj (1985) ",-0.31,8,10,2,3,1,0,0,0,0,0,,14,
n-methyl-n-(4-methylphenyl)sulfonylbenzamide,C15H15N1O3S1,010533-83-2,CN(C(=O)c1ccccc1)[S](=O)(=O)c2ccc(C)cc2,"larsen,jd et al. (1988) ",2.95,15,15,1,3,1,0,0,0,0,0,,20,
"3-buten-2-one,4-(2-methoxyphenyl)-",C11H12O2,010542-87-7,CC(=O)C=Cc1ccccc1OC,"yamagami,c et al. (1998) ",2.42,11,12,0,2,0,0,0,0,0,0,,13,
1-methoxy-4-[1-(4-methoxyphenyl)ethyl]benzene,C16H18O2,010543-21-2,COc1ccc(cc1)C(C)c2ccc(OC)cc2,"hansch,c et al. (1995) ",4.52,16,18,0,2,0,0,0,0,0,0,,18,
tert-butylsulfinylmethylsulfanyl-diethoxy-sulfanylidenephosphorane,C9H21O3P1S3,010548-10-4,CCO[P](=S)(OCC)SC[S](=O)C(C)(C)C,"hansch,c & leo,aj (1985) ",2.21,9,21,0,3,3,1,0,0,0,0,,16,
"1-nitroso-2,5-dihydropyrrole",C4H6N2O1,010552-94-0,O=NN1CC=CC1,"hansch,c et al. (1995) ",0.26,4,6,2,1,0,0,0,0,0,0,,7,
n-ethyl-n-methylnitrous amide,C3H8N2O1,010595-95-6,CCN(C)N=O,"vera,a et al. (1992) ",0.04,3,8,2,1,0,0,0,0,0,0,,6,
methyl n-(1h-benzimidazol-2-yl)carbamate,C9H9N3O2,010605-21-7,COC(=O)Nc1[nH]c2ccccc2n1,"hansch,c et al. (1995) ",1.52,9,9,3,2,0,0,0,0,0,0,,14,
"1,2-dimethyl-3-prop-1-en-2-ylcyclopentan-1-ol",C10H18O1,011039-70-6,CC1C(CCC1(C)O)C(C)=C,"li,j & perdue,em (1995) ",2.87,10,18,0,1,0,0,0,0,0,0,,11,
azadirachtin,C35H44O16,011141-17-6,CC=C(C)C(=O)OC1CC(C2(COC3C2C14COC(C4C(C3O)(C)C56C7CC(C5(O6)C)C8(C=COC8O7)O)(C(=O)OC)O)C(=O)OC)OC(=O)C,"tomlin,c (1997) ",1.09,35,44,0,16,0,0,0,0,0,0,,51,
cyclopropyl-(4-methoxyphenyl)-pyrimidin-5-ylmethanol,C15H16N2O2,012771-68-5,COc1ccc(cc1)C(O)(C2CC2)c3cncnc3,"tomlin,c (1994) ",1.91,15,16,2,2,0,0,0,0,0,0,,19,
"4-[(4-hydroxyphenyl)-(1,3-thiazol-2-yl)methyl]phenol",C16H13N1O2S1,013004-52-9,Oc1ccc(cc1)C(c2sccn2)c3ccc(O)cc3,"hansch,c & leo,aj (1985) ",2.96,16,13,1,2,1,0,0,0,0,0,,20,
1-(2-chloroethyl)-3-cyclohexyl-1-nitrosourea,C9H16Cl1N3O2,013010-47-4,ClCCN(N=O)C(=O)NC1CCCCC1,"hansch,c et al. (1995) ",2.83,9,16,3,2,0,0,0,1,0,0,,15,
nsc292206,C19H20O7,013017-11-3,CC(=C)C(=O)OC1CC2=CC(CC3(C)OC3C4OC(=O)C(=C)C14)OC2=O,sangster (1993) ,0.69,19,20,0,7,0,0,0,0,0,0,,26,
"n,n,2,4,6-pentamethylaniline",C11H17N1,013021-15-3,CN(C)c1c(C)cc(C)cc1C,"hansch,c et al. (1995) ",4.41,11,17,1,0,0,0,0,0,0,0,,12,
"biphenyl, dichloro-",C12H8Cl2,025512-42-9,Clc1cccc(c2ccccc2)c1Cl,"ghosh,u et al. (2000) ",5,12,8,0,0,0,0,0,2,0,0,,14,
3-chlorophenyl acetate,C8H7Cl1O2,013031-39-5,CC(=O)Oc1cccc(Cl)c1,"hansch,c et al. (1995) ",2.32,8,7,0,2,0,0,0,1,0,0,,11,
(4-acetylphenyl) acetate,C10H10O3,013031-43-1,CC(=O)Oc1ccc(cc1)C(C)=O,"hansch,c et al. (1995) ",1.29,10,10,0,3,0,0,0,0,0,0,,13,
3-methylbenzohydrazide,C8H10N2O1,013050-47-0,Cc1cccc(c1)C(=O)NN,"hansch,c et al. (1995) ",0.74,8,10,2,1,0,0,0,0,0,0,,11,
n-thiophen-2-ylacetamide,C6H7N1O1S1,013053-81-1,CC(=O)Nc1sccc1,"hansch,c et al. (1995) ",1.1,6,7,1,1,1,0,0,0,0,0,,9,
n-pyrimidin-2-ylacetamide,C6H7N3O1,013053-88-8,CC(=O)Nc1ncccn1,"hansch,c et al. (1995) ",-0.75,6,7,3,1,0,0,0,0,0,0,,10,
4-(ethoxy-phenylphosphinothioyl)oxybenzonitrile,C15H14N1O2P1S1,013067-93-1,CCO[P](=S)(Oc1ccc(cc1)C#N)c2ccccc2,"hansch,c et al. (1995) ",4.29,15,14,1,2,1,1,0,0,0,0,,20,
piperidine-2-thione,C5H9N1S1,013070-01-4,S=C1CCCCN1,"hansch,c et al. (1995) ",0.13,5,9,1,0,1,0,0,0,0,0,,7,
tert-butylsulfanylmethylsulfanyl-diethoxy-sulfanylidenephosphorane,C9H21O2P1S3,013071-79-9,CCO[P](=S)(OCC)SCSC(C)(C)C,"hansch,c et al. (1995) ",4.48,9,21,0,2,3,1,0,0,0,0,,15,
(3-ethyl-4-nitrophenoxy)-dimethoxy-sulfanylidenephosphorane,C10H14N1O5P1S1,013074-09-4,CCc1cc(O[P](=S)(OC)OC)ccc1[N+]([O-])=O,"hansch,c et al. (1995) ",3.74,10,14,1,5,1,1,0,0,0,0,,18,
dimethyl (4-nitro-3-propan-2-ylphenyl) phosphate,C11H16N1O6P1,013074-11-8,CO[P](=O)(OC)Oc1ccc(c(c1)C(C)C)[N+]([O-])=O,"hansch,c et al. (1995) ",2.57,11,16,1,6,0,1,0,0,0,0,,19,
bicyclo[2.2.1]hept-2-en-6-ol,C7H10O1,not,OC1CC2CC1C=C2,"lodge,kb (1999) ",1.24,7,10,0,1,0,0,0,0,0,0,,8,
"n-[1-[3,4-dihydroxy-5-(hydroxymethyl)oxolan-2-yl]-2-oxopyrimidin-4-yl]benzamide",C16H17N3O6,013089-48-0,OCC1OC(C(O)C1O)N2C=CC(=NC2=O)NC(=O)c3ccccc3,"hansch,c et al. (1995) ",0.3,16,17,3,6,0,0,0,0,0,0,,25,
pentyl 4-aminobenzoate,C12H17N1O2,013110-37-7,CCCCCOC(=O)c1ccc(N)cc1,"hansch,c et al. (1995) ",3.48,12,17,1,2,0,0,0,0,0,0,,15,
[3-(trifluoromethyl)phenyl]urea,C8H7F3N2O1,013114-87-9,NC(=O)Nc1cccc(c1)C(F)(F)F,"briggs,gg (1981) ",2.31,8,7,2,1,0,0,3,0,0,0,,14,
"propane, 1,2,2,3-tetrachloro-",C3H4Cl4,013116-53-5,ClCC(Cl)(Cl)CCl,chemicals inspection and testing institu (1992) ,2.72,3,4,0,0,0,0,0,4,0,0,,7,
methyl furan-3-carboxylate,C6H6O3,013129-23-2,COC(=O)c1cocc1,"yamagami,c et al. (1990) ",1.28,6,6,0,3,0,0,0,0,0,0,,9,
n-(3-bromophenyl)-2-phenylacetamide,C14H12Br1N1O1,013140-73-3,Brc1cccc(NC(=O)Cc2ccccc2)c1,"yamagami,c et al. (1984) ",3.77,14,12,1,1,0,0,0,0,1,0,,17,
n-(4-nitrophenyl)-2-phenylacetamide,C14H12N2O3,013140-77-7,[O-][N+](=O)c1ccc(NC(=O)Cc2ccccc2)cc1,"yamagami,c et al. (1984) ",3.18,14,12,2,3,0,0,0,0,0,0,,19,
1-cyclopropyl-3-phenylurea,C10H12N2O1,013140-86-8,O=C(NC1CC1)Nc2ccccc2,"hansch,c et al. (1995) ",1.65,10,12,2,1,0,0,0,0,0,0,,13,
1-cyclopentyl-3-phenylurea,C12H16N2O1,013140-89-1,O=C(NC1CCCC1)Nc2ccccc2,"briggs,gg (1981) ",2.65,12,16,2,1,0,0,0,0,0,0,,15,
"2-(hydroxymethyl)-5-(4-methylsulfanylpyrrolo[3,2-e]pyrimidin-7-yl)oxolane-3,4-diol",C12H15N3O4S1,013153-62-3,CSc1ncnc2n(ccc12)C3OC(CO)C(O)C3O,pomona (1987) ,0.09,12,15,3,4,1,0,0,0,0,0,,20,
"n,n-dimethylcinnamamide",C11H13N1O1,013156-74-6,CN(C)C(=O)C=Cc1ccccc1,"hansch,c et al. (1995) ",1.73,11,13,1,1,0,0,0,0,0,0,,13,
"n,n-dimethylfuran-2-carboxamide",C7H9N1O2,013156-75-7,CN(C)C(=O)c1occc1,"hansch,c et al. (1995) ",0.41,7,9,1,2,0,0,0,0,0,0,,10,
phosphamidon,C10H19Cl1N1O5P1,013171-21-6,CCN(CC)C(=O)\C(Cl)=C(/C)O[P](=O)(OC)OC,"tomlin,c (1997) ",0.79,10,19,1,5,0,1,0,1,0,0,,18,
2-(2-methyl-5-nitroimidazol-1-yl)ethyl acetate,C8H11N3O4,013182-82-6,CC(=O)OCCn1c(C)ncc1[N+]([O-])=O,"hansch,c et al. (1995) ",0.3,8,11,3,4,0,0,0,0,0,0,,15,
1-(ethoxy-propylsulfanylphosphoryl)sulfanylpropane,C8H19O2P1S2,013194-48-4,CCCS[P](=O)(OCC)SCCC,"tomlin,c (1994) ",3.59,8,19,0,2,2,1,0,0,0,0,,13,
4-methylsulfanylbenzoic acid,C8H8O2S1,013205-48-6,CSc1ccc(cc1)C(O)=O,"hansch,c et al. (1995) ",2.74,8,8,0,2,1,0,0,0,0,0,,11,
1-nitroso-1-(2-clet)-3-phenylurea,C9H10Cl1N3O2,013206-67-2,ClCCN(C(=O)Nc1ccccc1)N=O,"hansch,c et al. (1995) ",2.49,9,10,3,2,0,0,0,1,0,0,,15,
3-methyl-1-(phenylamino)thiourea,C8H11N3S1,013207-50-6,CNC(=S)NNc1ccccc1,"hansch,c et al. (1995) ",1.17,8,11,3,0,1,0,0,0,0,0,,12,
5-aminoquinolin-8-ol,C9H8N2O1,013207-66-4,Nc1ccc(O)c2ncccc12,sangster (1993) ,-0.11,9,8,2,1,0,0,0,0,0,0,,12,
4-phenylbutan-1-amine,C10H15N1,013214-66-9,NCCCCc1ccccc1,"hansch,c et al. (1995) ",2.4,10,15,1,0,0,0,0,0,0,0,,11,
n-methyl-n-phenylmethanesulfonamide,C8H11N1O2S1,013229-35-1,CN(c1ccccc1)[S](C)(=O)=O,sangster (1994) ,1.02,8,11,1,2,1,0,0,0,0,0,,12,
2-amino-5-methoxybenzenesulfonic acid,C7H9N1O4S1,013244-33-2,COc1ccc(N)c(c1)[S](O)(=O)=O,"zou,h et al. (1995) ",-3.49,7,9,1,4,1,0,0,0,0,0,,13,
"n,n-dipentylnitrous amide",C10H22N2O1,013256-06-9,CCCCCN(CCCCC)N=O,"vera,a et al. (1992) ",3.86,10,22,2,1,0,0,0,0,0,0,,13,
2-pyridin-4-ylethanamine,C7H10N2,013258-63-4,NCCc1ccncc1,"hansch,c et al. (1995) ",-0.01,7,10,2,0,0,0,0,0,0,0,,9,
n-(2-morpholin-4-ylethyl)prop-2-enamide,C9H16N2O2,013276-17-0,C=CC(=O)NCCN1CCOCC1,"chiari,m et al. (1991) ",-0.55,9,16,2,2,0,0,0,0,0,0,,13,
"benzoic acid, 2-[(3-chlorophenyl)amino]-",C13H10Cl1N1O2,013278-36-9,OC(=O)c1ccccc1Nc2cccc(Cl)c2,"terada,h et al. (1987) ",5.43,13,10,1,2,0,0,0,1,0,0,,17,
diethoxyphosphorylsulfanylmethylbenzene,C11H17O3P1S1,013286-32-3,CCO[P](=O)(OCC)SCc1ccccc1,"uno,s et al. (2001) ",3.21,11,17,0,3,1,1,0,0,0,0,,16,
(3-methylphenyl)-piperidin-1-ylmethanone,C13H17N1O1,013290-48-7,Cc1cccc(c1)C(=O)N2CCCCC2,"suryanarayana,mvs et al. (1991) ",2.6,13,17,1,1,0,0,0,0,0,0,,15,
"1-ethyl-4-phenyl-3,6-dihydro-2h-pyridine",C13H17N1,013314-63-1,CCN1CCC(=CC1)c2ccccc2,"altomare,ca et al. (1992) ",3.18,13,17,1,0,0,0,0,0,0,0,,14,
2-[(2-hydroxybenzoyl)amino]benzoic acid,C14H11N1O4,013316-98-8,OC(=O)c1ccccc1NC(=O)c2ccccc2O,biobyte starlist (2009) ,3.94,14,11,1,4,0,0,0,0,0,0,,19,
1-methylbenzotriazole,C7H7N3,013351-73-0,CN1C2=CC=CC=C2N=N1,"hansch,c & leo,aj (1985) ",1.13,7,7,3,0,0,0,0,0,0,0,,10,
13358-11-7,C22H35N1O2,013358-11-7,CCCCC(CC)CN1C(=O)C2C(C1=O)C3(CCC2(C)C=C3)C(C)C,chemicals inspection and testing institu (1992) ,5.96,22,35,1,2,0,0,0,0,0,0,,25,
"5,5-dimethyl-3-piperidin-1-ylcyclohex-2-en-1-one",C13H21N1O1,013358-76-4,CC1(C)CC(=O)C=C(C1)N2CCCCC2,biobyte starlist (2009) ,2.83,13,21,1,1,0,0,0,0,0,0,,15,
chlorbromuron,C9H10Br1Cl1N2O2,013360-45-7,CON(C)C(=O)Nc1ccc(Br)c(Cl)c1,"hansch,c et al. (1995) ",3.09,9,10,2,2,0,0,0,1,1,0,,15,
2-octene (trans),C8H16,013389-42-9,CCCCC\C=C\C,"ritter,s et al. (1995) ",4.51,8,16,0,0,0,0,0,0,0,0,,8,
3-(3-methylsulfonyloxypropylamino)propyl methanesulfonate,C8H19N1O6S2,013425-98-4,C[S](=O)(=O)OCCCNCCCO[S](C)(=O)=O,pomona (1987) ,-1.71,8,19,1,6,2,0,0,0,0,0,,17,
2-aminopyridine-3-carboxamide,C6H7N3O1,013438-65-8,NC(=O)c1cccnc1N,pomona (1987) ,0.88,6,7,3,1,0,0,0,0,0,0,,10,
3-(2-piperidin-1-ylethyl)pyridine,C12H18N2,013450-66-3,C1CCN(CC1)CCc2cccnc2,"hansch,c & leo,aj (1985) ",1.66,12,18,2,0,0,0,0,0,0,0,,14,
"ethyl 2-diethoxyphosphinothioyloxy-5-methylpyrazolo[1,5-a]pyrimidine-6-carboxylate",C14H20N3O5P1S1,013457-18-6,CCOC(=O)c1cn2nc(O[P](=S)(OCC)OCC)cc2nc1C,"tomlin,c (1994) ",3.8,14,20,3,5,1,1,0,0,0,0,,24,
124-benzthiadiazin-1-o2-3-me-7-br,C8H7Br1N2O2S1,013460-15-6,CC1NS(=O)(=O)c2c(ccc(Br)c2)N=1,"hansch,c & leo,aj (1985) ",1.37,8,7,2,2,1,0,0,0,1,0,,14,
124-benzthiadiazin-1-o2-3-tbu-7-cl,C11H13Cl1N2O2S1,013460-16-7,CC(C)(C)C1NS(=O)(=O)c2c(ccc(Cl)c2)N=1,"hansch,c & leo,aj (1985) ",2.4,11,13,2,2,1,0,0,1,0,0,,17,
124-benzthidiazin-1-o2-3-cypr-6-cl,C10H9Cl1N2O2S1,013460-17-8,C1C(C2NS(=O)(=O)c3c(cc(Cl)cc3)N=2)C1,"hansch,c & leo,aj (1985) ",1.98,10,9,2,2,1,0,0,1,0,0,,16,
"3,7,7-trimethylbicyclo[4.1.0]hept-3-ene",C10H16,013466-78-9,CC1=CCC2C(C1)C2(C)C,"griffin,s et al. (1999) ",4.38,10,16,0,0,0,0,0,0,0,0,,10,
hexyl 4-aminobenzoate,C13H19N1O2,013476-55-6,CCCCCCOC(=O)c1ccc(N)cc1,"liang,wq & lin,w (1992) ",3.96,13,19,1,2,0,0,0,0,0,0,,16,
"pyrazine-2,3-dicarbonitrile",C6H2N4,013481-25-9,N#Cc1nccnc1C#N,"yamagami,c et al. (1991) ",0.38,6,2,4,0,0,0,0,0,0,0,,10,
1-(2-aminopropanoyl)pyrrolidine-2-carboxylic acid,C8H14N2O3,013485-59-1,CC(N)C(=O)N1CCCC1C(O)=O,biobyte starlist (2009) ,-2.71,8,14,2,3,0,0,0,0,0,0,,13,
"n-[1-[3,4-dihydroxy-5-(hydroxymethyl)oxolan-2-yl]-2-oxopyrimidin-4-yl]acetamide",C11H15N3O6,013491-47-9,CC(=O)NC1=NC(=O)N(C=C1)C2OC(CO)C(O)C2O,sangster (1994) ,-1.35,11,15,3,6,0,0,0,0,0,0,,20,
s-methyl (phenylamino)methanethioate,C8H9N1O1S1,013509-38-1,CSC(=O)Nc1ccccc1,pomona (1987) ,2.4,8,9,1,1,1,0,0,0,0,0,,11,
1-(1h-indol-4-yloxy)-3-(propan-2-ylamino)propan-2-ol,C14H20N2O2,013523-86-9,CC(C)NCC(O)COc1cccc2[nH]ccc12,sangster (1994) ,1.75,14,20,2,2,0,0,0,0,0,0,,18,
2-(2-hydroxyethoxy)ethyl prop-2-enoate,C7H12O4,013533-05-6,OCCOCCOC(=O)C=C,biobyte starlist (2009) ,-0.3,7,12,0,4,0,0,0,0,0,0,,11,
(2-bromophenyl) n-methylcarbamate,C8H8Br1N1O2,013538-27-7,CNC(=O)Oc1ccccc1Br,"hansch,c et al. (1995) ",1.77,8,8,1,2,0,0,0,0,1,0,,12,
(2-iodophenyl) n-methylcarbamate,C8H8I1N1O2,013538-28-8,CNC(=O)Oc1ccccc1I,"hansch,c et al. (1995) ",1.94,8,8,1,2,0,0,0,0,0,1,,12,
"1,4-dimethyl-2-(phenylmethyl)benzene",C15H16,013540-50-6,Cc1ccc(C)c(Cc2ccccc2)c1,chemicals inspection and testing institu (1992) ,5.65,15,16,0,0,0,0,0,0,0,0,,15,
1-methoxy-3-(2-nitroimidazol-1-yl)propan-2-ol,C7H11N3O4,013551-87-6,COCC(O)Cn1ccnc1[N+]([O-])=O,"hansch,c & leo,aj (1985) ",-0.37,7,11,3,4,0,0,0,0,0,0,,14,
"1-(2,3-dihydroxypropyl)-n-hydroxyimidazol-2-amine oxide",C6H9N3O4,013551-92-3,OCC(O)Cn1ccnc1[NH+](O)[O-],"hansch,c & leo,aj (1985) ",-0.96,6,9,3,4,0,0,0,0,0,0,,13,
1-(4-methylphenyl)-3-piperidin-1-ylpropan-1-one,C15H21N1O1,013552-46-0,Cc1ccc(cc1)C(=O)CCN2CCCCC2,sangster (1994) ,3.55,15,21,1,1,0,0,0,0,0,0,,17,
"2-amino-1,2,3,4-tetrahydronaphthalen-1-ol",C10H13N1O1,013917-17-4,NC1CCc2ccccc2C1O,sangster (1994) ,0.81,10,13,1,1,0,0,0,0,0,0,,12,
diethoxy-quinoxalin-2-yloxy-sulfanylidenephosphorane,C12H15N2O3P1S1,013593-03-8,CCO[P](=S)(OCC)Oc1cnc2ccccc2n1,biobyte (1995) ,4.44,12,15,2,3,1,1,0,0,0,0,,19,
3-methyl-1-nitrosopiperidine,C6H12N2O1,013603-07-1,CC1CCCN(C1)N=O,"hansch,c & leo,aj (1985) ",0.99,6,12,2,1,0,0,0,0,0,0,,9,
"7-phenyl-4,6-diyn-hept-2-en-1-ol",C13H10O1,013641-62-8,OCC=CC#CC#Cc1ccccc1,"mclachlan,d et al. (1986) ",2.48,13,10,0,1,0,0,0,0,0,0,,14,
1-(propan-2-ylamino)-3-(2-prop-2-enylphenoxy)propan-2-ol,C15H23N1O2,013655-52-2,CC(C)NCC(O)COc1ccccc1CC=C,"hansch,c et al. (1995) ",3.1,15,23,1,2,0,0,0,0,0,0,,18,
"methyl 2,6-difluorobenzoate",C8H6F2O2,013671-00-6,COC(=O)c1c(F)cccc1F,"sotomatsu,t et al. (1993) ",1.96,8,6,0,2,0,0,2,0,0,0,,12,
"2-propanol, 1-chloro-, phosphate (3",C9H18Cl3O4P1,013674-84-5,O=P(OC(C)CCl)(OC(C)CCl)OC(C)CCl,chemicals inspection and testing institu (1992) ,2.59,9,18,0,4,0,1,0,3,0,0,,17,
"tris(1,3-dichloroisopropyl) phosphate",C9H15Cl6O4P1,013674-87-8,O=P(OC(CCl)CCl)(OC(CCl)CCl)OC(CCl)CCl,chemicals inspection and testing institu (1992) ,3.65,9,15,0,4,0,1,0,6,0,0,,20,
"hept-1,3-diyn-5-enylbenzene",C13H10,013678-98-3,CC=CC#CC#Cc1ccccc1,"mclachlan,d et al. (1986) ",4.76,13,10,0,0,0,0,0,0,0,0,,13,
[3-(ethoxycarbonylamino)phenyl] n-phenylcarbamate,C16H16N2O4,013684-56-5,CCOC(=O)Nc1cccc(OC(=O)Nc2ccccc2)c1,"tomlin,c (1994) ",3.39,16,16,2,4,0,0,0,0,0,0,,22,
[3-(methoxycarbonylamino)phenyl] n-(3-methylphenyl)carbamate,C16H16N2O4,013684-63-4,COC(=O)Nc1cccc(OC(=O)Nc2cccc(C)c2)c1,"tomlin,c (1994) ",3.59,16,16,2,4,0,0,0,0,0,0,,22,
(4-methylphenyl)-piperidin-1-ylmethanone,C13H17N1O1,013707-23-8,Cc1ccc(cc1)C(=O)N2CCCCC2,"suryanarayana,mvs et al. (1991) ",2.8,13,17,1,1,0,0,0,0,0,0,,15,
5-methylquinoxaline,C9H8N2,013708-12-8,Cc1cccc2nccnc12,"hansch,c et al. (1995) ",2.04,9,8,2,0,0,0,0,0,0,0,,11,
tolfenamic acid,C14H12Cl1N1O2,013710-19-5,Cc1c(Cl)cccc1Nc2ccccc2C(O)=O,"hansch,c et al. (1995) ",5.17,14,12,1,2,0,0,0,1,0,0,,18,
1-(mes)-acetaldehyde oxime,C3H7N1O1S1,013749-94-5,CSC(C)=NO,tscats ,1.12,3,7,1,1,1,0,0,0,0,0,,6,
2-thiophen-3-ylacetonitrile,C6H5N1S1,013781-53-8,N#CCc1cscc1,"hansch,c et al. (1995) ",1.26,6,5,1,0,1,0,0,0,0,0,,8,
"4-pyridine imidazole, 2-cf3",C7H4F3N3,013797-63-2,C1=CC2=C(N=C1)N=C(N2)C(F)(F)F,"hansch,c & leo,aj (1985) ",1.38,7,4,3,0,0,0,3,0,0,0,,13,
"acetaldehyde hydrazone,n-phenyl-n-benzoyl",C15H14N2O1,not,CC=NN(C(=O)c2ccccc2)c1ccccc1,biobyte starlist (2009) ,2.76,15,14,2,1,0,0,0,0,0,0,,18,
ethrane [haloether],C3H2Cl1F5O1,013838-16-9,FC(F)(OC(F)F)C(Cl)F,"hansch,c & leo,aj (1985) ",2.1,3,2,0,1,0,0,5,1,0,0,,10,
"n,n-dimethyl-1,3-benzoxazol-2-amine",C9H10N2O1,013858-89-4,CN(C)c1oc2ccccc2n1,"hansch,c & leo,aj (1985) ",2.1,9,10,2,1,0,0,0,0,0,0,,12,
(4-aminophenyl) acetate,C8H9N1O2,013871-68-6,CC(=O)Oc1ccc(N)cc1,"hansch,c et al. (1995) ",0.45,8,9,1,2,0,0,0,0,0,0,,11,
"urea, n,n-1,4-cyclohexanediylbis[n",C12H20Cl2N6O4,c12h20cl2n6o4,ClCCN(C(=O)NC1CCC(NC(=O)N(CCCl)N=O)CC1)N=O,clccn(c(=o)nc1ccc(nc(=o)n(cccl)n=o)cc1)n=o,2.74,12,20,6,4,0,0,0,2,0,0,,24,
"urea, n-(2-chloroethyl)-n'-(4-chlorophenyl)-n-ni",C9H9Cl2N3O2,013907-78-3,ClCCN(C(=O)Nc1ccc(Cl)cc1)N=O,pomona (1987) ,3.16,9,9,3,2,0,0,0,2,0,0,,16,
3(2-clet)-1-(2fet)-1-nitrosourea,C5H9Cl1F1N3O2,013908-92-4,ClCCNC(=O)N(CCF)N=O,"hansch,c & leo,aj (1985) ",0.96,5,9,3,2,0,0,1,1,0,0,,12,
1-(2-fluoroethyl)-3-[4-[(2-fluoroethyl-nitrosocarbamoyl)amino]cyclohexyl]-1-nitrosourea,C12H20F2N6O4,013908-98-0,FCCN(N=O)C(=O)NC1CCC(CC1)NC(=O)N(CCF)N=O,"hansch,c & leo,aj (1985) ",1.34,12,20,6,4,0,0,2,0,0,0,,24,
1(2-clet)-3(2-glutarimidyl)-1-no-urea,C8H11Cl1N4O4,013909-02-9,O=C1NC(=O)C(NC(=O)N(N=O)CCCl)CC1,"hansch,c & leo,aj (1985) ",0.37,8,11,4,4,0,0,0,1,0,0,,17,
3-cype-1-(2-clet)-1-nitrosourea,C8H14Cl1N3O2,013909-03-0,ClCCN(C(=O)NC1CCCC1)N=O,"hansch,c et al. (1995) ",2.2,8,14,3,2,0,0,0,1,0,0,,14,
1-(2-clet)-3(4-mecyhx)-1-n=o urea,C10H18Cl1N3O2,013909-09-6,O=C(NC1CCC(C)CC1)N(N=O)CCCl,"hansch,c et al. (1995) ",3.3,10,18,3,2,0,0,0,1,0,0,,16,
1(2clet)-1-(no)-3-cyclododecylurea,C15H28Cl1N3O2,013909-14-3,ClCCN(C(=O)NC1CCCCCCCCCCC1)N=O,"hansch,c et al. (1995) ",5.64,15,28,3,2,0,0,0,1,0,0,,21,
"benzenesulfonamide, n-[(butylamino)carbonyl]-4-c",C11H15Cl1N2O3S1,013909-64-3,Clc1ccc(S(=O)(=O)NC(=O)NCCCC)cc1,"hansch,c et al. (1995) ",2.81,11,15,2,3,1,0,0,1,0,0,,18,
3-methyl-1-(4-methylphenyl)sulfonylurea,C9H12N2O3S1,013909-69-8,CNC(=O)N[S](=O)(=O)c1ccc(C)cc1,sangster (1993) ,0.95,9,12,2,3,1,0,0,0,0,0,,15,
"1-(2,3,4-trimethoxyphenyl)ethanone",C11H14O4,013909-73-4,COc1ccc(C(C)=O)c(OC)c1OC,"hansch,c et al. (1995) ",1.63,11,14,0,4,0,0,0,0,0,0,,15,
2-ethylpyrazine,C6H8N2,013925-00-3,CCc1cnccn1,"yamagami,c et al. (1990a) ",0.69,6,8,2,0,0,0,0,0,0,0,,8,
2-methyl-3-(2-methylpropyl)pyrazine,C9H14N2,013925-06-9,CC(C)Cc1nccnc1C,"hansch,c et al. (1995) ",1.96,9,14,2,0,0,0,0,0,0,0,,11,
"5-(1,3-benzodioxol-5-ylmethyl)pyrimidine-2,4-diamine",C12H12N4O2,013932-40-6,Nc1ncc(Cc2ccc3OCOc3c2)c(N)n1,"hansch,c & leo,aj (1985) ",1.51,12,12,4,2,0,0,0,0,0,0,,18,
"2-(3-propan-2-ylphenyl)indene-1,3-dione",C18H16O2,013935-94-9,CC(C)c1cccc(c1)C2C(=O)c3ccccc3C2=O,sangster (1994) ,4.43,18,16,0,2,0,0,0,0,0,0,,20,
"2-(3-tert-butylphenyl)indene-1,3-dione",C19H18O2,013935-95-0,CC(C)(C)c1cccc(c1)C2C(=O)c3ccccc3C2=O,sangster (1993) ,4.88,19,18,0,2,0,0,0,0,0,0,,21,
"2-(4-tert-butylphenyl)indene-1,3-dione",C19H18O2,013935-96-1,CC(C)(C)c1ccc(cc1)C2C(=O)c3ccccc3C2=O,sangster (1993) ,4.88,19,18,0,2,0,0,0,0,0,0,,21,
"2-(3,5-ditert-butylphenyl)indene-1,3-dione",C23H26O2,013936-01-1,CC(C)(C)c1cc(cc(c1)C(C)(C)C)C2C(=O)c3ccccc3C2=O,sangster (1993) ,6.86,23,26,0,2,0,0,0,0,0,0,,25,
6-methyl-4-phenyl-1h-quinazolin-2-one,C15H12N2O1,013961-64-3,Cc1ccc2NC(=O)N=C(c3ccccc3)c2c1,sangster (1993) ,2.32,15,12,2,1,0,0,0,0,0,0,,18,
"2-mes-4,6-dimethylpyrimidine",C7H10N2S1,014001-64-0,S(C)c1nc(C)cc(C)n1,"hansch,c & leo,aj (1985) ",1.86,7,10,2,0,1,0,0,0,0,0,,10,
4-phenylquinazolin-2-amine,C14H11N3,014005-50-6,Nc1nc2ccccc2c(n1)c3ccccc3,"hansch,c & leo,aj (1985) ",2.95,14,11,3,0,0,0,0,0,0,0,,17,
2-hydroxy-3-methylbenzamide,C8H9N1O2,014008-60-7,Cc1cccc(C(N)=O)c1O,sangster (1994) ,2.12,8,9,1,2,0,0,0,0,0,0,,11,
3(adamantyl)-1(2clet)-1-no urea,C13H20Cl1N3O2,014039-10-2,ClCCN(C(=O)NC12CC3CC(CC(C3)C1)C2)N=O,"hansch,c & leo,aj (1985) ",3.56,13,20,3,2,0,0,0,1,0,0,,19,
[3-(trifluoromethyl)phenyl] n-methylcarbamate,C9H8F3N1O2,014061-27-9,CNC(=O)Oc1cccc(c1)C(F)(F)F,"hansch,c & leo,aj (1985) ",2.37,9,8,1,2,0,0,3,0,0,0,,15,
3-aminobenzohydrazide,C7H9N3O1,014062-34-1,NNC(=O)c1cccc(N)c1,"hansch,c & leo,aj (1985) ",-0.86,7,9,3,1,0,0,0,0,0,0,,11,
"2-(hydroxymethyl)-6-(3-methoxyphenoxy)oxane-3,4,5-triol",C13H18O7,014062-61-4,COc1cccc(OC2OC(CO)C(O)C(O)C2O)c1,"hansch,c & leo,aj (1985) ",-0.52,13,18,0,7,0,0,0,0,0,0,,20,
"n,n,4-trimethylbenzamide",C10H13N1O1,014062-78-3,CN(C)C(=O)c1ccc(C)cc1,"suryanarayana,mvs et al. (1991) ",1.72,10,13,1,1,0,0,0,0,0,0,,12,
3-methyl-4-nitro-1-oxidoquinolin-1-ium,C10H8N2O3,014073-00-8,Cc1c[n+]([O-])c2ccccc2c1[N+]([O-])=O,"hansch,c & leo,aj (1985) ",1.06,10,8,2,3,0,0,0,0,0,0,,15,
5-methyl-2-propan-2-ylcyclohexan-1-one,C10H18O1,014073-97-3,CC(C)C1CCC(C)CC1=O,"griffin,s et al. (1999) ",3.05,10,18,0,1,0,0,0,0,0,0,,11,
pyrimidine-2-carbonitrile,C5H3N3,014080-23-0,N#Cc1ncccn1,"yamagami,c et al. (1990) ",-0.31,5,3,3,0,0,0,0,0,0,0,,8,