Names,Formula,CAS No,SMILES,Reference,Exp logp,C,H,N,O,S,P,F,Cl,Br,I,,,
2-chloro-5-nitroaniline,C6H5Cl1N2O2,006283-25-6,Nc1cc(ccc1Cl)[N+]([O-])=O,"wu,c-d et al. (2001) ",2.23,6,5,2,2,0,0,0,1,0,0,,11,
6-methyl-1h-benzimidazol-2-amine,C8H9N3,006285-68-3,Cc1ccc2nc(N)[nH]c2c1,"hansch,c et al. (1995) ",1.11,8,9,3,0,0,0,0,0,0,0,,11,
butyl 2-amino-3-(4-hydroxyphenyl)propanoate,C13H19N1O3,006292-90-6,CCCCOC(=O)C(N)Cc1ccc(O)cc1,"huang,ch et al. (1985) ",1.8,13,19,1,3,0,0,0,0,0,0,,17,
"2-bromo-6-methylcyclohexa-2,5-diene-1,4-dione",C7H5Br1O2,006293-55-6,CC1=CC(=O)C=C(Br)C1=O,"hansch,c et al. (1995) ",1.21,7,5,0,2,0,0,0,0,1,0,,10,
2-pyridin-3-ylethanol,C7H9N1O1,006293-56-7,OCCc1cccnc1,"hansch,c et al. (1995) ",0.12,7,9,1,1,0,0,0,0,0,0,,9,
quinoxalin-6-amine,C8H7N3,006298-37-9,Nc1ccc2nccnc2c1,"hansch,c et al. (1995) ",0.9,8,7,3,0,0,0,0,0,0,0,,11,
"n,n-dimethyl-2-pyridin-2-ylethanamine",C9H14N2,006304-27-4,CN(C)CCc1ccccn1,"young,rc et al. (1993) ",1.12,9,14,2,0,0,0,0,0,0,0,,11,
octanehydrazide,C8H18N2O1,006304-39-8,CCCCCCCC(=O)NN,"hansch,c & leo,aj (1985) ",1,8,18,2,1,0,0,0,0,0,0,,11,
4-sulfamoylbenzamide,C7H8N2O3S1,006306-24-7,NC(=O)c1ccc(cc1)[S](N)(=O)=O,"carotti,a et al. (1989) ",-0.83,7,8,2,3,1,0,0,0,0,0,,13,
4-(carbamoylamino)benzoic acid,C8H8N2O3,006306-25-8,NC(=O)Nc1ccc(cc1)C(O)=O,sangster (1994) ,0.73,8,8,2,3,0,0,0,0,0,0,,13,
n-(2-methylsulfanylphenyl)acetamide,C9H11N1O1S1,006310-41-4,CSc1ccccc1NC(C)=O,pomona (1987) ,1.53,9,11,1,1,1,0,0,0,0,0,,12,
n-[4-(phenoxy)phenyl]acetamide,C14H13N1O2,006312-87-4,CC(=O)Nc1ccc(Oc2ccccc2)cc1,pomona (1987) ,3.13,14,13,1,2,0,0,0,0,0,0,,17,
(3-acetamidophenyl) acetate,C10H11N1O3,006317-89-1,CC(=O)Nc1cccc(OC(C)=O)c1,"hansch,c & leo,aj (1985) ",1.03,10,11,1,3,0,0,0,0,0,0,,14,
4-(4-chlorobenzoyl)pyridine,C12H8Cl1N1O1,006318-51-0,Clc1ccc(cc1)C(=O)c2ccncc2,"hansch,c & leo,aj (1985) ",2.61,12,8,1,1,0,0,0,1,0,0,,15,
n-(4-cyanophenyl)formamide,C8H6N2O1,006321-94-4,O=CNc1ccc(cc1)C#N,"hansch,c et al. (1995) ",1.08,8,6,2,1,0,0,0,0,0,0,,11,
2-(2-hydroxyphenoxy)acetic acid,C8H8O4,006324-11-4,OC(=O)COc1ccccc1O,"hansch,c et al. (1995) ",0.85,8,8,0,4,0,0,0,0,0,0,,12,
4-nitrobenzenesulfonamide,C6H6N2O4S1,006325-93-5,N[S](=O)(=O)c1ccc(cc1)[N+]([O-])=O,"hansch,c et al. (1995) ",0.64,6,6,2,4,1,0,0,0,0,0,,13,
"benzenesulfonamide, 4-chloro-n-methyl",C7H8Cl1N1O2S1,006333-79-5,Clc1ccc(S(=O)(=O)NC)cc1,"duffel,mw et al. (1986) ",1.92,7,8,1,2,1,0,0,1,0,0,,12,
4-propan-2-ylbenzenesulfonamide,C9H13N1O2S1,006335-39-3,CC(C)c1ccc(cc1)[S](N)(=O)=O,sangster (1993) ,1.84,9,13,1,2,1,0,0,0,0,0,,13,
"n-(4-hydroxy-2,6-dimethylphenyl)acetamide",C10H13N1O2,006337-56-0,CC(=O)Nc1c(C)cc(O)cc1C,"hansch,c et al. (1995) ",0.31,10,13,1,2,0,0,0,0,0,0,,13,
2-(3-acetamidophenoxy)acetic acid,C10H11N1O4,006339-04-4,CC(=O)Nc1cccc(OCC(O)=O)c1,"hansch,c et al. (1995) ",0.48,10,11,1,4,0,0,0,0,0,0,,15,
3-methyl-5-nitroimidazole-4-sulfonamide,C4H6N4O4S1,not,Cn1cnc(c1[S](N)(=O)=O)[N+]([O-])=O,biobyte (1995) ,-0.74,4,6,4,4,1,0,0,0,0,0,,13,
9h-fluoren-1-amine,C13H11N1,006344-63-4,Nc1cccc2c1Cc3ccccc23,"debnath,ak et al. (1992) ",3.18,13,11,1,0,0,0,0,0,0,0,,14,
2-amino-6-chloro-4-nitrophenol,C6H5Cl1N2O3,006358-09-4,Nc1cc(cc(Cl)c1O)[N+]([O-])=O,"hansch,c & leo,aj (1985) ",1.53,6,5,2,3,0,0,0,1,0,0,,12,
2-acetamido-3-(4-hydroxyphenyl)-n-methylpropanamide,C12H16N2O3,006367-14-2,CNC(=O)C(Cc1ccc(O)cc1)NC(C)=O,biobyte (1995) ,-0.32,12,16,2,3,0,0,0,0,0,0,,17,
4-cyclohexylaniline,C12H17N1,006373-50-8,Nc1ccc(cc1)C2CCCCC2,"hansch,c et al. (1995) ",3.65,12,17,1,0,0,0,0,0,0,0,,13,
1-dipyrrolidin-1-ylphosphorylpyrrolidine,C12H24N3O1P1,006415-07-2,O=[P](N1CCCC1)(N2CCCC2)N3CCCC3,"debord,j & labadie,m (1985) ",1.67,12,24,3,1,0,1,0,0,0,0,,17,
(bis(phosphonomethyl)amino)methylphosphonic acid,C3H12N1O9P3,006419-19-8,O[P](O)(=O)CN(C[P](O)(O)=O)C[P](O)(O)=O,"gledhill,we & feijtel,tcj (1992) ",-3.53,3,12,1,9,0,3,0,0,0,0,,16,
4-me(5-no2-2-furfurilidene)thiazole,C10H8N2O3S1,006448-55-1,Cc1csc(C=Cc2ccc(N(=O)(=O))o2)n1,"hansch,c & leo,aj (1985) ",1.53,10,8,2,3,1,0,0,0,0,0,,16,
3-chlorodiphenyl ether,C12H9Cl1O1,006452-49-9,Clc1cccc(Nc2ccccc2)c1,"kurz,j & ballschmiter,k (1999) ",4.75,12,9,0,1,0,0,0,1,0,0,,14,
1-(propan-2-ylamino)-3-(2-prop-2-enoxyphenoxy)propan-2-ol,C15H23N1O3,006452-71-7,CC(C)NCC(O)COc1ccccc1OCC=C,"hansch,c et al. (1995) ",2.1,15,23,1,3,0,0,0,0,0,0,,19,
"4-methylpyrano[6,5-e][1]benzoxol-2-one",C12H8O3,006457-92-7,CC1=CC(=O)Oc2c1ccc3occc23,sangster (1993) ,2.32,12,8,0,3,0,0,0,0,0,0,,15,
"4-phenylpyrrolidine-2,3,5-trione",C10H7N1O3,006476-18-2,O=C1NC(=O)C(=O)C1c2ccccc2,"lipinski,ca et al. (1991) ",2.26,10,7,1,3,0,0,0,0,0,0,,14,
1-methylquinoxalin-2-one,C9H8N2O1,006479-18-1,CN1C(=O)C=Nc2ccccc12,"hansch,c et al. (1995) ",0.79,9,8,2,1,0,0,0,0,0,0,,12,
n-quinoxalin-2-ylacetamide,C10H9N3O1,006479-24-9,CC(=O)Nc1cnc2ccccc2n1,"hansch,c et al. (1995) ",1.53,10,9,3,1,0,0,0,0,0,0,,14,
quinoline-3-carboxamide,C10H8N2O1,006480-67-7,NC(=O)c1cnc2ccccc2c1,"hansch,c et al. (1995) ",1.06,10,8,2,1,0,0,0,0,0,0,,13,
amexol,C14H9Cl1N2,not,Clc1c3ccccc3nc(c2ccccc2)n1,biobyte (1995) ,4.47,14,9,2,0,0,0,0,1,0,0,,17,
2-methyl-5-prop-1-en-2-ylcyclohex-2-en-1-one,C10H14O1,006485-40-1,CC(=C)C1CC=C(C)C(=O)C1,"griffin,s et al. (1999) ",2.71,10,14,0,1,0,0,0,0,0,0,,11,
"salicylanilide, 4'-chloro-3-nitro-",C13H9Cl1N2O4,006490-99-9,Oc1c(cccc1[N+]([O-])=O)C(=O)Nc2ccc(Cl)cc2,"dai, j et al. (1998a) ",2.16,13,9,2,4,0,0,0,1,0,0,,20,
"3,7-dimethyl-1-(5-oxohexyl)purine-2,6-dione",C13H18N4O3,006493-05-6,Cn1cnc2N(C)C(=O)N(CCCCC(C)=O)C(=O)c12,biobyte (1995) ,0.29,13,18,4,3,0,0,0,0,0,0,,20,
"2-diethylamino-n-(2,3-dihydro-1h-inden-1-yl)acetamide",C15H22N2O1,006514-54-1,CCN(CC)CC(=O)NC1CCc2ccccc12,"hansch,c et al. (1995) ",2.74,15,22,2,1,0,0,0,0,0,0,,18,
"2,3,6-trichloropyridine",C5H2Cl3N1,006515-09-9,Clc1ccc(Cl)c(Cl)n1,"hansch,c et al. (1995) ",2.77,5,2,1,0,0,0,0,3,0,0,,9,
"3,5,6-trichloro-2-pyridinol",C5H2Cl3N1O1,006515-38-4,Oc1nc(Cl)c(Cl)cc1Cl,"hansch,c et al. (1995) ",3.21,5,2,1,1,0,0,0,3,0,0,,10,
"benzamide, 2-chloro-n,n-dimethyl-",C9H10Cl1N1O1,006526-67-6,CN(C)C(=O)c1ccccc1Cl,"suryanarayana,mvs et al. (1991) ",1.54,9,10,1,1,0,0,0,1,0,0,,12,
2-(2-methoxyphenyl)-1h-benzimidazole,C14H12N2O1,006528-85-4,COC1=CC=CC=C1C2=NC3=CC=CC=C3N2,"ertepinar,h et al. (1995) ",3.02,14,12,2,1,0,0,0,0,0,0,,17,
2-[4-(phenylmethoxy)phenyl]acetic acid,C15H14O3,006547-53-1,OC(=O)Cc1ccc(OCc2ccccc2)cc1,"hansch,c & leo,aj (1985) ",2.72,15,14,0,3,0,0,0,0,0,0,,18,
"2-(3,5-dimethylphenyl)indene-1,3-dione",C17H14O2,006549-64-0,Cc1cc(C)cc(c1)C2C(=O)c3ccccc3C2=O,sangster (1993) ,4.02,17,14,0,2,0,0,0,0,0,0,,19,
2-iodoquinoline,C9H6I1N1,006560-83-4,Ic1ccc2ccccc2n1,"hansch,c et al. (1995) ",3.04,9,6,1,0,0,0,0,0,0,1,,11,
1-(2-methoxy-2-phenylethyl)pyrrolidine,C13H19N1O1,006577-49-7,COC(CN1CCCC1)c2ccccc2,"hansch,c & leo,aj (1985) ",1.88,13,19,1,1,0,0,0,0,0,0,,15,
"1,4-oxathiin-3-carboxylic acid, 5,6-dihydro-2-methyl-",C6H8O3S1,006577-69-1,CC1=C(SCCO1)C(O)=O,"hansch,c & leo,aj (1985) ",0.04,6,8,0,3,1,0,0,0,0,0,,10,
"2-cf3-5,6-dibromo-benzimidazole",C8H3Br2F3N2,006587-21-9,C1=C2C(=CC(=C1Br)Br)N=C(N2)C(F)(F)F,"hansch,c & leo,aj (1985) ",4.15,8,3,2,0,0,0,3,0,2,0,,15,
2-aminopentanoic acid,C5H11N1O2,006600-40-4,CCCC(N)C(O)=O,"hansch,c et al. (1995) ",-2.11,5,11,1,2,0,0,0,0,0,0,,8,
5-cl-6-no2-2-cf3-benzimidazole,C8H3Cl1F3N3O2,006609-40-1,C1=C2C(=CC(=C1[N+](=O)[O-])Cl)N=C(N2)C(F)(F)F,"hansch,c & leo,aj (1985) ",3.21,8,3,3,2,0,0,3,1,0,0,,17,
"2,2-dimethyl-n-phenylpropanamide",C11H15N1O1,006625-74-7,CC(C)(C)C(=O)Nc1ccccc1,"hansch,c et al. (1995) ",1.99,11,15,1,1,0,0,0,0,0,0,,13,
4-(4-bromophenyl)sulfonylaniline,C12H10Br1N1O2S1,006626-22-8,Nc1ccc(cc1)[S](=O)(=O)c2ccc(Br)cc2,"altomare,c et al. (1991) ",2.85,12,10,1,2,1,0,0,0,1,0,,17,
dimethyl 2-(phenylmethylidene)propanedioate,C12H12O4,006626-84-2,COC(=O)C(=Cc1ccccc1)C(=O)OC,"hansch,c et al. (1995) ",2.24,12,12,0,4,0,0,0,0,0,0,,16,
n-phenylpyridin-2-amine,C11H10N2,006631-37-4,N(c1ccccc1)c2ccccn2,"hansch,c & leo,aj (1985) ",2.75,11,10,2,0,0,0,0,0,0,0,,13,
3-(4-acetyloxyphenyl)-2-aminopropanoic acid,C11H13N1O4,006636-22-2,CC(=O)Oc1ccc(CC(N)C(O)=O)cc1,"huang,ch et al. (1985) ",-1.33,11,13,1,4,0,0,0,0,0,0,,16,
3-indol-1-ylpropanoic acid,C11H11N1O2,006639-06-1,OC(=O)CCn1ccc2ccccc12,sangster (1993) ,2.2,11,11,1,2,0,0,0,0,0,0,,14,
"2,4,5-trichlorotoluene",C7H5Cl3,006639-30-1,Cc1cc(Cl)c(Cl)cc1Cl,biobyte (1995) ,4.56,7,5,0,0,0,0,0,3,0,0,,10,
"piperazine, 1-(3-chlorophenyl)-",C10H13Cl1N2,006640-24-0,Clc1cccc(c1)N2CCNCC2,"caccia,s et al. (1985) ",2.11,10,13,2,0,0,0,0,1,0,0,,13,
"benzenemethanol, 3,5-dichloro-2-hydroxy-",C7H6Cl2O2,006641-02-7,OCc1cc(Cl)cc(Cl)c1O,sangster (1993) ,2.3,7,6,0,2,0,0,0,2,0,0,,11,
methyl n-methylcarbamate,C3H7N1O2,006642-30-4,CNC(=O)OC,"hansch,c et al. (1995) ",-0.06,3,7,1,2,0,0,0,0,0,0,,6,
1-nitroso-4-phenylpiperidine,C11H14N2O1,006652-04-6,O=NN1CCC(CC1)c2ccccc2,"hansch,c & leo,aj (1985) ",2.59,11,14,2,1,0,0,0,0,0,0,,14,
"propanenitrile, 3-  4- (2-chloro-4-nitrophenyl)a",C17H16Cl1N5O3,006657-33-6,C(#N)CCN(CCO)c1ccc(N=Nc2ccc(N(=O)(=O))cc2Cl)cc1,"baughman,gl & weber,ej (1991) ",4,17,16,5,3,0,0,0,1,0,0,,26,
7-hydroxy-2-phenylchromen-4-one,C15H10O3,006665-86-7,Oc1ccc2C(=O)C=C(Oc2c1)c3ccccc3,pomona (1987) ,3.62,15,10,0,3,0,0,0,0,0,0,,18,
n-[4-[2-hydroxy-3-(propan-2-ylamino)propoxy]phenyl]acetamide,C14H22N2O3,006673-35-4,CC(C)NCC(O)COc1ccc(NC(C)=O)cc1,"hansch,c et al. (1995) ",0.79,14,22,2,3,0,0,0,0,0,0,,19,
"2,3,4,6,7,8,9,10-octahydropyrimido[1,2-a]azepine",C9H16N2,006674-22-2,C1CCN2CCCN=C2CC1,biobyte (1995) ,1.38,9,16,2,0,0,0,0,0,0,0,,11,
"[2-(11,17-dihydroxy-10,13-dimethyl-3-oxo-2,6,7,8,9,11,12,14,15,16-decahydro-1h-cyclopenta[a]phenanthren-17-yl)-2-oxoethyl] propanoate",C24H34O6,not,CCC(=O)OCC(=O)C1(O)CCC2C3CCC4=CC(=O)CCC4(C)C3C(O)CC12C,"hansch,c et al. (1995) ",2.8,24,34,0,6,0,0,0,0,0,0,,30,
"[2-(11,17-dihydroxy-10,13-dimethyl-3-oxo-2,6,7,8,9,11,12,14,15,16-decahydro-1h-cyclopenta[a]phenanthren-17-yl)-2-oxoethyl] butanoate",C25H36O6,006677-99-2,CCCC(=O)OCC(=O)C1(O)CCC2C3CCC4=CC(=O)CCC4(C)C3C(O)CC12C,sangster (1993) ,2.91,25,36,0,6,0,0,0,0,0,0,,31,
"[2-(11,17-dihydroxy-10,13-dimethyl-3-oxo-2,6,7,8,9,11,12,14,15,16-decahydro-1h-cyclopenta[a]phenanthren-17-yl)-2-oxoethyl] pentanoate",C26H38O6,006678-00-8,CCCCC(=O)OCC(=O)C1(O)CCC2C3CCC4=CC(=O)CCC4(C)C3C(O)CC12C,"hansch,c et al. (1995) ",3.62,26,38,0,6,0,0,0,0,0,0,,32,
"[2-(11,17-dihydroxy-10,13-dimethyl-3-oxo-2,6,7,8,9,11,12,14,15,16-decahydro-1h-cyclopenta[a]phenanthren-17-yl)-2-oxoethyl] octanoate",C29H44O6,006678-14-4,CCCCCCCC(=O)OCC(=O)C1(O)CCC2C3CCC4=CC(=O)CCC4(C)C3C(O)CC12C,"hansch,c et al. (1995) ",5.49,29,44,0,6,0,0,0,0,0,0,,35,
"1h-imidazo[1,2-b]pyrazole, 2,3-dihydro-",C5H7N3,006714-29-0,C1Cn2nccc2N1,pomona (1987) ,-0.25,5,7,3,0,0,0,0,0,0,0,,8,
"2-[4-(trifluoromethyl)phenyl]indene-1,3-dione",C16H9F3O2,006723-40-6,FC(F)(F)c1ccc(cc1)C2C(=O)c3ccccc3C2=O,sangster (1994) ,3.78,16,9,0,2,0,0,3,0,0,0,,21,
"1,1-bis(tert-butylperoxy)-3,3,5-trimethylcyclohexane",C17H34O4,006731-36-8,CC1CC(C)(C)CC(C1)(OOC(C)(C)C)OOC(C)(C)C,chemicals inspection and testing institu (1992) ,6.53,17,34,0,4,0,0,0,0,0,0,,21,
undecylbenzene,C17H28,006742-54-7,CCCCCCCCCCCc1ccccc1,"sherblom,pm et al. (1992) ",8.14,17,28,0,0,0,0,0,0,0,0,,17,
1-(5-no2-2-furyl)-2-(conme2)ethylene,C9H10N2O4,006755-13-1,CN(C)C(=O)C=Cc1ccc(N(=O)(=O))o1,"balaz,s et al. (1987) ",0.82,9,10,2,4,0,0,0,0,0,0,,15,
"diethylmalonate,2-cl benzal",C14H15Cl1O4,006768-20-3,Clc1ccccc1C=C(C(=O)OCC)C(=O)OCC,"hansch,c & leo,aj (1985) ",3.15,14,15,0,4,0,0,0,1,0,0,,19,
"diethylmalonate,3-cl benzal",C14H15Cl1O4,006768-21-4,Clc1cccc(C=C(C(=O)OCC)C(=O)OCC)c1,"hansch,c & leo,aj (1985) ",3.49,14,15,0,4,0,0,0,1,0,0,,19,
diethyl 2-[(2-methoxyphenyl)methylidene]propanedioate,C15H18O5,006768-22-5,CCOC(=O)C(=Cc1ccccc1OC)C(=O)OCC,"hansch,c & leo,aj (1985) ",3.29,15,18,0,5,0,0,0,0,0,0,,20,
diethyl 2-[(4-methoxyphenyl)methylidene]propanedioate,C15H18O5,006768-23-6,CCOC(=O)C(=Cc1ccc(OC)cc1)C(=O)OCC,"hansch,c & leo,aj (1985) ",3.28,15,18,0,5,0,0,0,0,0,0,,20,
"1,4-bis(methoxymethyl)benzene",C10H14O2,006770-38-3,COCc1ccc(COC)cc1,"wang,w et al. (1987) ",1.28,10,14,0,2,0,0,0,0,0,0,,12,
diethyl 2-[(3-methoxyphenyl)methylidene]propanedioate,C15H18O5,006771-54-6,CCOC(=O)C(=Cc1cccc(OC)c1)C(=O)OCC,"hansch,c & leo,aj (1985) ",3.18,15,18,0,5,0,0,0,0,0,0,,20,
1-(3-acetylphenyl)ethanone,C10H10O2,006781-42-6,CC(=O)c1cccc(c1)C(C)=O,"hansch,c et al. (1995) ",1.43,10,10,0,2,0,0,0,0,0,0,,12,
"diethylmalonate,4-cl benzal",C14H15Cl1O4,006827-40-3,Clc1ccc(C=C(C(=O)OCC)C(=O)OCC)cc1,"hansch,c & leo,aj (1985) ",3.96,14,15,0,4,0,0,0,1,0,0,,19,
4-amino-n-(4-nitrophenyl)benzenesulfonamide,C12H11N3O4S1,006829-82-9,Nc1ccc(cc1)[S](=O)(=O)Nc2ccc(cc2)[N+]([O-])=O,sangster (1993) ,2.14,12,11,3,4,1,0,0,0,0,0,,20,
"3,4'-dichlorodiphenyl ether",C12H8Cl2O1,006842-62-2,Clc1ccc(Oc2cccc(Cl)c2)cc1,"kurz,j & ballschmiter,k (1999) ",5.13,12,8,0,1,0,0,0,2,0,0,,15,
2-dimethylamino-1-phenylethanol,C10H15N1O1,006853-14-1,CN(C)CC(O)c1ccccc1,"hansch,c et al. (1995) ",1.54,10,15,1,1,0,0,0,0,0,0,,12,
2-chloro-6-cyano-pyrazine,C5H2Cl1N3,006863-74-7,Clc1cncc(n1)C#N,"yamagami,c & takao,n (1991) ",0.79,5,2,3,0,0,0,0,1,0,0,,9,
acetaniliden4methylphenyl,C15H15N1O1,not,O=C(Cc2ccccc2)Nc1ccc(C)cc1,biobyte (1995) ,3.05,15,15,1,1,0,0,0,0,0,0,,17,
"2,4'-dichlorodiphenyl ether",C12H8Cl2O1,006903-65-7,Clc1ccc(Oc2ccccc2Cl)cc1,"kurz,j & ballschmiter,k (1999) ",5.03,12,8,0,1,0,0,0,2,0,0,,15,
6-methoxypyrazin-2-amine,C5H7N3O1,006905-47-1,COc1cncc(N)n1,"yamagami,c et al. (1991) ",0.73,5,7,3,1,0,0,0,0,0,0,,9,
2-hydroxybutanedioic acid,C4H6O5,006915-15-7,OC(CC(O)=O)C(O)=O,"hansch,c et al. (1995) ",-1.26,4,6,0,5,0,0,0,0,0,0,,9,
"n,n-di(prop-2-ynyl)prop-2-yn-1-amine",C9H9N1,006921-29-5,C#CCN(CC#C)CC#C,"hansch,c et al. (1995) ",1.27,9,9,1,0,0,0,0,0,0,0,,10,
5-(4-methylphenyl)dithiole-3-thione,C10H8S3,006921-83-1,Cc1ccc(cc1)C2=CC(=S)SS2,"bona,m et al. (1995) ",4.26,10,8,0,0,3,0,0,0,0,0,,13,
ethyl pyrazine-2-carboxylate,C7H8N2O2,006924-68-1,CCOC(=O)c1cnccn1,"yamagami,c et al. (1990a) ",0.28,7,8,2,2,0,0,0,0,0,0,,11,
"3-amino-1,1-dimethylthiourea",C3H9N3S1,006926-58-5,CN(C)C(=S)NN,"hansch,c et al. (1995) ",-0.3,3,9,3,0,1,0,0,0,0,0,,7,
4-bromo-3-methylaniline,C7H8Br1N1,006933-10-4,Cc1cc(N)ccc1Br,"hansch,c et al. (1995) ",2.53,7,8,1,0,0,0,0,0,1,0,,9,
"n,n,3-trimethylbenzamide",C10H13N1O1,006935-65-5,CN(C)C(=O)c1cccc(C)c1,"suryanarayana,mvs et al. (1991) ",1.6,10,13,1,1,0,0,0,0,0,0,,12,
"benzene, 1,2,4,5-tetrachloro-3-methoxy-",C7H4Cl4O1,006936-40-9,COc1c(Cl)c(Cl)cc(Cl)c1Cl,"opperhuizen,a & voors,pi (1987) ",4.68,7,4,0,1,0,0,0,4,0,0,,12,
"4-methyl-n,n-di(propan-2-yl)benzamide",C14H21N1O1,006937-52-6,CC(C)N(C(C)C)C(=O)c1ccc(C)cc1,"suryanarayana,mvs et al. (1991) ",2.5,14,21,1,1,0,0,0,0,0,0,,16,
butyl pyridine-3-carboxylate,C10H13N1O2,006938-06-3,CCCCOC(=O)c1cccnc1,"hansch,c et al. (1995) ",2.27,10,13,1,2,0,0,0,0,0,0,,13,
p-chloro-n-phenylsuccinimide,C10H8Cl1N1O2,006943-00-6,Clc1ccc(N2C(=O)CCC2(=O))cc1,"hansch,c & leo,aj (1985) ",0.96,10,8,1,2,0,0,0,1,0,0,,14,
"5,7-diazaspiro[2.5]octane-4,6,8-trione",C6H6N2O3,006947-77-9,O=C1NC(=O)C2(CC2)C(=O)N1,"prankerd,rj & mckeown,rh (1992) ",-0.53,6,6,2,3,0,0,0,0,0,0,,11,
phenyl 3-methyl-5-nitroimidazole-4-sulfonate,C10H9N3O5S1,006954-35-4,Cn1cnc(c1[S](=O)(=O)Oc2ccccc2)[N+]([O-])=O,"hansch,c & leo,aj (1985) ",1.08,10,9,3,5,1,0,0,0,0,0,,19,
o-chlorobenzenesulfonamide,C6H6Cl1N1O2S1,006961-82-6,N[S](=O)(=O)c1ccccc1Cl,"hansch,c & leo,aj (1985) ",0.74,6,6,1,2,1,0,0,1,0,0,,11,
4-bromo-5-nitro-1h-imidazole,C3H2Br1N3O2,006963-65-1,[O-][N+](=O)c1[nH]cnc1Br,"suwinski,j et al. (1985) ",0.85,3,2,3,2,0,0,0,0,1,0,,9,
"1h-imidazole, 5-chloro-4-nitro-",C3H2Cl1N3O2,006963-66-2,[O-][N+](=O)c1nc[nH]c1Cl,"suwinski,j et al. (1985) ",0.78,3,2,3,2,0,0,0,1,0,0,,9,
n-(3-methanesulfonamidophenyl)methanesulfonamide,C8H12N2O4S2,006966-38-7,C[S](=O)(=O)Nc1cccc(N[S](C)(=O)=O)c1,"hansch,c & leo,aj (1985) ",0.07,8,12,2,4,2,0,0,0,0,0,,16,
"phenyl n,n-dimethylcarbamate",C9H11N1O2,006969-90-0,CN(C)C(=O)Oc1ccccc1,"hansch,c et al. (1995) ",1.56,9,11,1,2,0,0,0,0,0,0,,12,
2-methyl-4-nitroso-phenol,C7H7N1O2,006971-38-6,Cc1cc(ccc1O)N=O,sangster (1993) ,1.71,7,7,1,2,0,0,0,0,0,0,,10,
"1,1-dimethylthiourea",C3H8N2S1,006972-05-0,CN(C)C(N)=S,"govers,h et al. (1986) ",-0.43,3,8,2,0,1,0,0,0,0,0,,6,
"n,n-dimethylpyridine-3-carboxamide",C8H10N2O1,006972-69-6,CN(C)C(=O)c1cccnc1,"hansch,c et al. (1995) ",-0.48,8,10,2,1,0,0,0,0,0,0,,11,
"2,4-dichloroacetanilide",C8H7Cl2N1O1,006975-29-7,CC(=O)Nc1ccc(Cl)cc1Cl,"nakagawa,y et al. (1992) ",2.18,8,7,1,1,0,0,0,2,0,0,,12,
"5-[(4,5-dimethoxy-2-methylphenyl)methyl]pyrimidine-2,4-diamine",C14H18N4O2,006981-18-6,COc1cc(C)c(Cc2cnc(N)nc2N)cc1OC,"hansch,c & leo,aj (1985) ",1.23,14,18,4,2,0,0,0,0,0,0,,20,
"searle, sc-17127",C24H32O3,006987-59-3,CC52C6CCC4(C)C(C6CC3(CC3)C5=CC(=O)CC2)CCC41OC(=O)CC1,"hansch,c & leo,aj (1985) ",3.15,24,32,0,3,0,0,0,0,0,0,,27,
"[2-(1,3-dioxolan-2-yl)phenyl] n-methylcarbamate",C11H13N1O4,006988-21-2,CNC(=O)Oc1ccccc1C2OCCO2,"hansch,c et al. (1995) ",0.67,11,13,1,4,0,0,0,0,0,0,,16,
diethoxy-methyl-sulfanylidenephosphorane,C5H13O2P1S1,006996-81-2,CCO[P](C)(=S)OCC,"krikorian,se et al. (1987) ",2.08,5,13,0,2,1,1,0,0,0,0,,9,
4-chlorophenyl phenyl ether,C12H9Cl1O1,007005-72-3,Clc1ccc(Oc2ccccc2)cc1,"kurz,j & ballschmiter,k (1999) ",4.7,12,9,0,1,0,0,0,1,0,0,,14,
3-(phenylmethyl)-3h-2-benzofuran-1-one,C15H12O2,007011-98-5,O=C1OC(Cc2ccccc2)c3ccccc13,"hansch,c & leo,aj (1985) ",3.12,15,12,0,2,0,0,0,0,0,0,,17,
"2,4,4'-trichlorobiphenyl",C12H7Cl3,007012-37-5,Clc1ccc(cc1)c2ccc(Cl)cc2Cl,"hansch,c & leo,aj (1985) ",5.62,12,7,0,0,0,0,0,3,0,0,,15,
4-phenylsulfonylaniline,C12H11N1O2S1,007019-01-4,Nc1ccc(cc1)[S](=O)(=O)c2ccccc2,"altomare,c et al. (1991) ",1.76,12,11,1,2,1,0,0,0,0,0,,16,
"[5-(6-aminopurin-9-yl)-2,5-dihydrofuran-2-yl]methanol",C10H11N5O2,007057-48-9,Nc1ncnc2n(cnc12)C3OC(CO)C=C3,sangster (1993) ,-0.5,10,11,5,2,0,0,0,0,0,0,,17,
n-butyl-n-methylnitrous amide,C5H12N2O1,007068-83-9,CCCCN(C)N=O,"vera,a et al. (1992) ",1.08,5,12,2,1,0,0,0,0,0,0,,8,
3-chloro-4-methoxyacetanilide,C9H10Cl1N1O2,007073-42-9,Clc1c(OC)ccc(NC(=O)(C))c1,"nakagawa,y et al. (1992) ",1.81,9,10,1,2,0,0,0,1,0,0,,13,
naphthalen-1-yl n-methyl-n-nitrosocarbamate,C12H10N2O3,007090-25-7,CN(N=O)C(=O)Oc1cccc2ccccc12,"hansch,c & leo,aj (1985) ",2.85,12,10,2,3,0,0,0,0,0,0,,17,
"biphenylene, 2,3,6,7-tetrachloro-",C12H4Cl4,007090-41-7,Clc1cc2c(cc1Cl)c3cc(Cl)c(Cl)cc23,"burkhard,lp & kuehl,dw (1986) ",6.14,12,4,0,0,0,0,0,4,0,0,,16,
2-[[2-[[2-[[2-[(2-aminoacetyl)amino]acetyl]amino]acetyl]amino]acetyl]amino]acetic acid,C10H17N5O6,007093-67-6,NCC(=O)NCC(=O)NCC(=O)NCC(=O)NCC(O)=O,pomona (1987) ,-3.31,10,17,5,6,0,0,0,0,0,0,,21,
"methyl 2-amino-3-(3,4-dihydroxyphenyl)propanoate",C10H13N1O4,007101-51-1,COC(=O)C(N)Cc1ccc(O)c(O)c1,"fix,ja et al. (1989) ",-0.21,10,13,1,4,0,0,0,0,0,0,,15,
4-ethyldithiole-3-thione,C5H6S3,007113-30-6,CCC1=CSSC1=S,"bona,m et al. (1995) ",2.67,5,6,0,0,3,0,0,0,0,0,,8,
"2-(4-methyl-1,3-thiazol-2-yl)guanidine",C5H8N4S1,007120-01-6,Cc1csc(N=C(N)N)n1,pomona (1987) ,1.24,5,8,4,0,1,0,0,0,0,0,,10,
"3-cl-6-pyridazinamine,n,n-dime",C6H8Cl1N3,007145-60-0,CN(C)c1nnc(Cl)cc1,"hansch,c et al. (1995) ",0.98,6,8,3,0,0,0,0,1,0,0,,10,
"benzenamine, 4-[(4-chlorophenyl)sulfonyl]-",C12H10Cl1N1O2S1,007146-68-1,Nc1ccc(cc1)[S](=O)(=O)c2ccc(Cl)cc2,"altomare,c et al. (1991) ",2.57,12,10,1,2,1,0,0,1,0,0,,17,
4-chloro-5-methyl-2-nitrophenol,C7H6Cl1N1O3,007147-89-9,Cc1cc(O)c(cc1Cl)[N+]([O-])=O,"schwarzenbach,rp et al. (1988) ",2.93,7,6,1,3,0,0,0,1,0,0,,12,
3-chloro-4-methylacetanilide,C9H10Cl1N1O1,007149-79-3,O=C(C)Nc1ccc(C)c(Cl)c1,"nakagawa,y et al. (1992) ",2.69,9,10,1,1,0,0,0,1,0,0,,12,
"n,1-dimethylpyrrole-2-carboxamide",C7H10N2O1,007151-19-1,CNC(=O)c1cccn1C,"yamagami,c et al. (1994) ",0.71,7,10,2,1,0,0,0,0,0,0,,10,
"6,7-dimethylquinoxaline",C10H10N2,007153-23-3,Cc1cc2nccnc2cc1C,"hansch,c et al. (1995) ",2.29,10,10,2,0,0,0,0,0,0,0,,12,
"n,n'-di(phenyl)benzene-1,4-dicarboxamide",C20H16N2O2,007154-31-6,O=C(Nc1ccccc1)c2ccc(cc2)C(=O)Nc3ccccc3,pomona (1987) ,3.72,20,16,2,2,0,0,0,0,0,0,,24,
2-1-pyrrolidinylethanamine,C6H14N2,007154-73-6,NCCN1CCCC1,"hansch,c et al. (1995) ",0.08,6,14,2,0,0,0,0,0,0,0,,8,