Names,Formula,CAS No,SMILES,Reference,Exp logp,C,H,N,O,S,P,F,Cl,Br,I,,,
trifluoromethylbenzene,C7H5F3,000098-08-8,FC(F)(F)c1ccccc1,"hansch,c et al. (1995) ",3.01,7,5,0,0,0,0,3,0,0,0,,10,
benzenesulfonamide,C6H7N1O2S1,000098-10-2,N[S](=O)(=O)c1ccccc1,"hansch,c et al. (1995) ",0.31,6,7,1,2,1,0,0,0,0,0,,10,
3-(trifluoromethyl)aniline,C7H6F3N1,000098-16-8,Nc1cccc(c1)C(F)(F)F,"debnath,ak et al. (1992) ",2.29,7,6,1,0,0,0,3,0,0,0,,11,
3-(trifluoromethyl)phenol,C7H5F3O1,000098-17-9,Oc1cccc(c1)C(F)(F)F,"hansch,c et al. (1995) ",2.95,7,5,0,1,0,0,3,0,0,0,,11,
3-aminobenzenesulfonamide,C6H8N2O2S1,000098-18-0,Nc1cccc(c1)[S](N)(=O)=O,"hansch,c et al. (1995) ",-0.38,6,8,2,2,1,0,0,0,0,0,,11,
1-nitro-3-(trifluoromethyl)benzene,C7H4F3N1O2,000098-46-4,[O-][N+](=O)c1cccc(c1)C(F)(F)F,"hansch,c et al. (1995) ",2.62,7,4,1,2,0,0,3,0,0,0,,13,
1-tert-butyl-4-methylbenzene,C11H16,000098-51-1,Cc1ccc(cc1)C(C)(C)C,chemicals inspection and testing institu (1992) ,5.17,11,16,0,0,0,0,0,0,0,0,,11,
4-tert-butylcyclohexan-1-ol,C10H20O1,021862-63-5,CC(C)(C)C1CCC(O)CC1,"funasaki,n et al. (1986) ",3.09,10,20,0,1,0,0,0,0,0,0,,11,
4-tert-butylphenol,C10H14O1,000098-54-4,CC(C)(C)c1ccc(O)cc1,"hansch,c et al. (1995) ",3.31,10,14,0,1,0,0,0,0,0,0,,11,
2-(4-methyl-1-cyclohex-3-enyl)propan-2-ol,C10H18O1,010482-56-1,CC1=CCC(CC1)C(C)(C)O,"griffin,s et al. (1999) ",3.28,10,18,0,1,0,0,0,0,0,0,,11,
4-methylsulfonylchlorobenzene,C7H7Cl1O2S1,000098-57-7,C[S](=O)(=O)c1ccc(Cl)cc1,"hansch,c et al. (1995) ",1.06,7,7,0,2,1,0,0,1,0,0,,11,
4-chlorobenzenesulfonamide,C6H6Cl1N1O2S1,000098-64-6,N[S](=O)(=O)c1ccc(Cl)cc1,sangster (1994) ,1.15,6,6,1,2,1,0,0,1,0,0,,11,
4-tert-butylbenzoic acid,C11H14O2,000098-73-7,CC(C)(C)c1ccc(cc1)C(O)=O,"hansch,c et al. (1995) ",3.85,11,14,0,2,0,0,0,0,0,0,,13,
isopropylbenzene,C9H12,000098-82-8,CC(C)c1ccccc1,"hansch,c et al. (1995) ",3.66,9,12,0,0,0,0,0,0,0,0,,9,
prop-1-en-2-ylbenzene,C9H10,000098-83-9,CC(=C)c1ccccc1,"hansch,c et al. (1995) ",3.48,9,10,0,0,0,0,0,0,0,0,,9,
1-phenylethanone,C8H8O1,000098-86-2,CC(=O)c1ccccc1,"hansch,c et al. (1995) ",1.58,8,8,0,1,0,0,0,0,0,0,,9,
cyclohexanecarboxylic acid,C7H12O2,000098-89-5,OC(=O)C1CCCCC1,"hansch,c et al. (1995) ",1.96,7,12,0,2,0,0,0,0,0,0,,9,
pyridine-3-carboxamide,C6H6N2O1,000098-92-0,NC(=O)c1cccnc1,"hansch,c et al. (1995) ",-0.37,6,6,2,1,0,0,0,0,0,0,,9,
nitrobenzene,C6H5N1O2,000098-95-3,[O-][N+](=O)c1ccccc1,"hansch,c et al. (1995) ",1.85,6,5,1,2,0,0,0,0,0,0,,9,
pyrazine-2-carboxamide,C5H5N3O1,000098-96-4,NC(=O)c1cnccn1,"hansch,c et al. (1995) ",-0.6,5,5,3,1,0,0,0,0,0,0,,9,
pyridine-2-carboxylic acid,C6H5N1O2,000098-98-6,OC(=O)c1ccccn1,"hansch,c et al. (1995) ",0.72,6,5,1,2,0,0,0,0,0,0,,9,
m-chloroacetophenone,C8H7Cl1O1,000099-02-5,CC(=O)c1cccc(Cl)c1,"hansch,c et al. (1995) ",2.51,8,7,0,1,0,0,0,1,0,0,,10,
1-(3-aminophenyl)ethanone,C8H9N1O1,000099-03-6,CC(=O)c1cccc(N)c1,"dunn,wj et al. (1983) ",0.83,8,9,1,1,0,0,0,0,0,0,,10,
3-methylbenzoic acid,C8H8O2,000099-04-7,Cc1cccc(c1)C(O)=O,"hansch,c et al. (1995) ",2.37,8,8,0,2,0,0,0,0,0,0,,10,
3-aminobenzoic acid,C7H7N1O2,000099-05-8,Nc1cccc(c1)C(O)=O,sangster (1994) ,0.65,7,7,1,2,0,0,0,0,0,0,,10,
3-hydroxybenzoic acid,C7H6O3,000099-06-9,OC(=O)c1cccc(O)c1,"hansch,c et al. (1995) ",1.5,7,6,0,3,0,0,0,0,0,0,,10,
3-dimethylaminophenol,C8H11N1O1,000099-07-0,CN(C)c1cccc(O)c1,"hansch,c et al. (1995) ",1.56,8,11,1,1,0,0,0,0,0,0,,10,
1-methyl-3-nitrobenzene,C7H7N1O2,000099-08-1,Cc1cccc(c1)[N+]([O-])=O,"hansch,c et al. (1995) ",2.45,7,7,1,2,0,0,0,0,0,0,,10,
3-nitroaniline,C6H6N2O2,000099-09-2,Nc1cccc(c1)[N+]([O-])=O,"hansch,c et al. (1995) ",1.37,6,6,2,2,0,0,0,0,0,0,,10,
"3,5-dihydroxybenzoic acid",C7H6O4,000099-10-5,OC(=O)c1cc(O)cc(O)c1,"hansch,c et al. (1995) ",0.86,7,6,0,4,0,0,0,0,0,0,,11,
"methyl 3,4,5-trihydroxybenzoate",C8H8O5,000099-24-1,COC(=O)c1cc(O)c(O)c(O)c1,"hansch,c et al. (1995) ",0.86,8,8,0,5,0,0,0,0,0,0,,13,
"2,6-dibromo-4-nitrophenol",C6H3Br2N1O3,000099-28-5,Oc1c(Br)cc(cc1Br)[N+]([O-])=O,"hansch,c et al. (1995) ",3.57,6,3,1,3,0,0,0,0,2,0,,12,
"2,6-dichloro-4-nitroaniline",C6H4Cl2N2O2,000099-30-9,Nc1c(Cl)cc(cc1Cl)[N+]([O-])=O,"tomlin,c (1997) ",2.8,6,4,2,2,0,0,0,2,0,0,,12,
"3,5-dinitrobenzoic acid",C7H4N2O6,000099-34-3,OC(=O)c1cc(cc(c1)[N+]([O-])=O)[N+]([O-])=O,"hansch,c et al. (1995) ",1.55,7,4,2,6,0,0,0,0,0,0,,15,
"1,3,5-trinitrobenzene",C6H3N3O6,000099-35-4,[O-][N+](=O)c1cc(cc(c1)[N+]([O-])=O)[N+]([O-])=O,"hansch,c et al. (1995) ",1.18,6,3,3,6,0,0,0,0,0,0,,15,
methyl 3-methylbenzoate,C9H10O2,000099-36-5,COC(=O)c1cccc(C)c1,"sotomatsu,t et al. (1993) ",2.77,9,10,0,2,0,0,0,0,0,0,,11,
2-methyl-5-prop-1-en-2-ylcyclohex-2-en-1-ol,C10H16O1,000099-48-9,CC(=C)C1CC=C(C)C(O)C1,"griffin,s et al. (1999) ",3.12,10,16,0,1,0,0,0,0,0,0,,11,
"3,4-dihydroxybenzoic acid",C7H6O4,000099-50-3,OC(=O)c1ccc(O)c(O)c1,"hansch,c et al. (1995) ",0.86,7,6,0,4,0,0,0,0,0,0,,11,
"1,2-dimethyl-4-nitrobenzene",C8H9N1O2,000099-51-4,Cc1ccc(cc1C)[N+]([O-])=O,"deneer,jw et al. (1987) ",2.91,8,9,1,2,0,0,0,0,0,0,,11,
"3,4-dichloronitrobenzene",C6H3Cl2N1O2,000099-54-7,[O-][N+](=O)c1ccc(Cl)c(Cl)c1,"hansch,c et al. (1995) ",3.12,6,3,1,2,0,0,0,2,0,0,,11,
2-methyl-5-nitroaniline,C7H8N2O2,000099-55-8,Cc1ccc(cc1N)[N+]([O-])=O,"hansch,c et al. (1995) ",1.87,7,8,2,2,0,0,0,0,0,0,,11,
"4-nitrobenzene-1,2-diamine",C6H7N3O2,000099-56-9,Nc1ccc(cc1N)[N+]([O-])=O,"hansch,c et al. (1995) ",0.88,6,7,3,2,0,0,0,0,0,0,,11,
2-amino-4-nitrophenol,C6H6N2O3,000099-57-0,Nc1cc(ccc1O)[N+]([O-])=O,sangster (1994) ,1.26,6,6,2,3,0,0,0,0,0,0,,11,
2-methoxy-5-nitroaniline,C7H8N2O3,000099-59-2,COc1ccc(cc1N)[N+]([O-])=O,"hansch,c et al. (1995) ",1.47,7,8,2,3,0,0,0,0,0,0,,12,
"benzoic acid, 2-chloro-4-nitro-",C7H4Cl1N1O4,000099-60-5,OC(=O)c1ccc(cc1Cl)[N+]([O-])=O,"hansch,c et al. (1995) ",2.03,7,4,1,4,0,0,0,1,0,0,,13,
3-nitrobenzaldehyde,C7H5N1O3,000099-61-6,[O-][N+](=O)c1cccc(C=O)c1,"hansch,c et al. (1995) ",1.47,7,5,1,3,0,0,0,0,0,0,,11,
"1,3-dinitrobenzene",C6H4N2O4,000099-65-0,[O-][N+](=O)c1cccc(c1)[N+]([O-])=O,"hansch,c et al. (1995) ",1.49,6,4,2,4,0,0,0,0,0,0,,12,
2-propylpentanoic acid,C8H16O2,000099-66-1,CCCC(CCC)C(O)=O,sangster (1993) ,2.75,8,16,0,2,0,0,0,0,0,0,,10,
4-butan-2-ylphenol,C10H14O1,000099-71-8,CCC(C)c1ccc(O)cc1,"hansch,c et al. (1995) ",3.08,10,14,0,1,0,0,0,0,0,0,,11,
methyl 4-methylbenzoate,C9H10O2,000099-75-2,COC(=O)c1ccc(C)cc1,"sotomatsu,t et al. (1993) ",2.7,9,10,0,2,0,0,0,0,0,0,,11,
methyl 4-hydroxybenzoate,C8H8O3,000099-76-3,COC(=O)c1ccc(O)cc1,"hansch,c et al. (1995) ",1.96,8,8,0,3,0,0,0,0,0,0,,11,
ethyl 4-nitrobenzoate,C9H9N1O4,000099-77-4,CCOC(=O)c1ccc(cc1)[N+]([O-])=O,"hansch,c et al. (1995) ",2.33,9,9,1,4,0,0,0,0,0,0,,14,
1-methyl-4-propan-2-ylcyclohexane,C10H20,000099-82-1,CC1CCC(CC1)C(C)C,chemicals inspection and testing institu (1992) ,5.56,10,20,0,0,0,0,0,0,0,0,,10,
"1-methyl-4-propan-2-ylcyclohexa-1,4-diene",C10H16,000099-85-4,CC(C)C1=CCC(=CC1)C,"li,j & perdue,em (1995) ",4.5,10,16,0,0,0,0,0,0,0,0,,10,
"1-methyl-4-propan-2-ylcyclohexa-1,3-diene",C10H16,000099-86-5,CC(C)C1=CC=C(C)CC1,"griffin,s et al. (1999) ",4.25,10,16,0,0,0,0,0,0,0,0,,10,
1-methyl-4-propan-2-ylbenzene,C10H14,025155-15-1,CC(C)c1ccc(C)cc1,"hansch,c et al. (1995) ",4.1,10,14,0,0,0,0,0,0,0,0,,10,
4-propan-2-ylaniline,C9H13N1,000099-88-7,CC(C)c1ccc(N)cc1,sangster (1994) ,2.49,9,13,1,0,0,0,0,0,0,0,,10,
4-propan-2-ylphenol,C9H12O1,000099-89-8,CC(C)c1ccc(O)cc1,"hansch,c et al. (1995) ",2.9,9,12,0,1,0,0,0,0,0,0,,10,
1-(4-bromophenyl)ethanone,C8H7Br1O1,000099-90-1,CC(=O)c1ccc(Br)cc1,"hansch,c et al. (1995) ",2.43,8,7,0,1,0,0,0,0,1,0,,10,
1-(4-chlorophenyl)ethanone,C8H7Cl1O1,000099-91-2,CC(=O)c1ccc(Cl)cc1,"hansch,c et al. (1995) ",2.32,8,7,0,1,0,0,0,1,0,0,,10,
1-(4-aminophenyl)ethanone,C8H9N1O1,000099-92-3,CC(=O)c1ccc(N)cc1,"hansch,c et al. (1995) ",0.83,8,9,1,1,0,0,0,0,0,0,,10,
1-(4-hydroxyphenyl)ethanone,C8H8O2,000099-93-4,CC(=O)c1ccc(O)cc1,"hansch,c et al. (1995) ",1.35,8,8,0,2,0,0,0,0,0,0,,10,
4-methylbenzoic acid,C8H8O2,000099-94-5,Cc1ccc(cc1)C(O)=O,"hansch,c et al. (1995) ",2.27,8,8,0,2,0,0,0,0,0,0,,10,
4-hydroxybenzoic acid,C7H6O3,000099-96-7,OC(=O)c1ccc(O)cc1,"hansch,c et al. (1995) ",1.58,7,6,0,3,0,0,0,0,0,0,,10,
"n,n,4-trimethylaniline",C9H13N1,000099-97-8,CN(C)c1ccc(C)cc1,sangster (1993) ,2.81,9,13,1,0,0,0,0,0,0,0,,10,
"n,n-dihydroxy-4-methylaniline",C7H7N1O2,000099-99-0,Cc1ccc(cc1)N(O)O,"hansch,c et al. (1995) ",2.37,7,7,1,2,0,0,0,0,0,0,,10,
p-chloronitrobenzene,C6H4Cl1N1O2,000100-00-5,[O-][N+](=O)c1ccc(Cl)cc1,"hansch,c et al. (1995) ",2.39,6,4,1,2,0,0,0,1,0,0,,10,
4-nitroaniline,C6H6N2O2,000100-01-6,Nc1ccc(cc1)[N+]([O-])=O,"hansch,c et al. (1995) ",1.39,6,6,2,2,0,0,0,0,0,0,,10,
4-nitrophenol,C6H5N1O3,000100-02-7,Oc1ccc(cc1)[N+]([O-])=O,"hansch,c et al. (1995) ",1.91,6,5,1,3,0,0,0,0,0,0,,10,
1-(4-methoxyphenyl)ethanone,C9H10O2,000100-06-1,COc1ccc(cc1)C(C)=O,"hansch,c et al. (1995) ",1.74,9,10,0,2,0,0,0,0,0,0,,11,
4-methoxybenzoic acid,C8H8O3,000100-09-4,COc1ccc(cc1)C(O)=O,"hansch,c et al. (1995) ",1.96,8,8,0,3,0,0,0,0,0,0,,11,
4-dimethylaminobenzaldehyde,C9H11N1O1,000100-10-7,CN(C)c1ccc(C=O)cc1,"hansch,c et al. (1995) ",1.81,9,11,1,1,0,0,0,0,0,0,,11,
1-ethyl-4-nitrobenzene,C8H9N1O2,000100-12-9,CCc1ccc(cc1)[N+]([O-])=O,"hansch,c et al. (1995) ",3.03,8,9,1,2,0,0,0,0,0,0,,11,
n-methyl-4-nitroaniline,C7H8N2O2,000100-15-2,CNc1ccc(cc1)[N+]([O-])=O,"hansch,c et al. (1995) ",2.04,7,8,2,2,0,0,0,0,0,0,,11,
(4-nitrophenyl)hydrazine,C6H7N3O2,000100-16-3,NNc1ccc(cc1)[N+]([O-])=O,"hansch,c et al. (1995) ",1.41,6,7,3,2,0,0,0,0,0,0,,11,
1-methoxy-4-nitrobenzene,C7H7N1O3,000100-17-4,COc1ccc(cc1)[N+]([O-])=O,"hansch,c et al. (1995) ",2.03,7,7,1,3,0,0,0,0,0,0,,11,
1-(4-nitrophenyl)ethanone,C8H7N1O3,000100-19-6,CC(=O)c1ccc(cc1)[N+]([O-])=O,"hansch,c et al. (1995) ",1.53,8,7,1,3,0,0,0,0,0,0,,12,
terephthalic acid,C8H6O4,000100-21-0,OC(=O)c1ccc(cc1)C(O)=O,"hansch,c et al. (1995) ",2,8,6,0,4,0,0,0,0,0,0,,12,
"n,n-dimethyl-4-nitroaniline",C8H10N2O2,000100-23-2,CN(C)c1ccc(cc1)[N+]([O-])=O,"hansch,c et al. (1995) ",2.27,8,10,2,2,0,0,0,0,0,0,,12,
2-(4-nitrophenyl)ethanol,C8H9N1O3,000100-27-6,OCCc1ccc(cc1)[N+]([O-])=O,"hansch,c et al. (1995) ",1.12,8,9,1,3,0,0,0,0,0,0,,12,
1-ethoxy-4-nitrobenzene,C8H9N1O3,000100-29-8,CCOc1ccc(cc1)[N+]([O-])=O,"hansch,c et al. (1995) ",2.53,8,9,1,3,0,0,0,0,0,0,,12,
"n,n-diethylethane-1,2-diamine",C6H16N2,000100-36-7,CCN(CC)CCN,"hansch,c et al. (1995) ",0.21,6,16,2,0,0,0,0,0,0,0,,8,
100-39-0,C7H7Br1,000100-39-0,BrCc1ccccc1,"hansch,c et al. (1995) ",2.92,7,7,0,0,0,0,0,0,1,0,,8,
4-ethenylcyclohexene,C8H12,000100-40-3,C=CC1CCC=CC1,chemicals inspection and testing institu (1992) ,3.93,8,12,0,0,0,0,0,0,0,0,,8,
ethylbenzene,C8H10,000100-41-4,CCc1ccccc1,"hansch,c et al. (1995) ",3.15,8,10,0,0,0,0,0,0,0,0,,8,
ethenylbenzene,C8H8,000100-42-5,C=Cc1ccccc1,"hansch,c et al. (1995) ",2.95,8,8,0,0,0,0,0,0,0,0,,8,
alpha-chlorotoluene,C7H7Cl1,000100-44-7,ClCc1ccccc1,"hansch,c et al. (1995) ",2.3,7,7,0,0,0,0,0,1,0,0,,8,
phenylmethanamine,C7H9N1,000100-46-9,NCc1ccccc1,"hansch,c et al. (1995) ",1.09,7,9,1,0,0,0,0,0,0,0,,8,
benzonitrile,C7H5N1,000100-47-0,N#Cc1ccccc1,"hansch,c et al. (1995) ",1.56,7,5,1,0,0,0,0,0,0,0,,8,
pyridine-4-carbonitrile,C6H4N2,000100-48-1,N#Cc1ccncc1,"hansch,c et al. (1995) ",0.46,6,4,2,0,0,0,0,0,0,0,,8,
phenylmethanol,C7H8O1,000100-51-6,OCc1ccccc1,"hansch,c et al. (1995) ",1.1,7,8,0,1,0,0,0,0,0,0,,8,
benzaldehyde,C7H6O1,000100-52-7,O=Cc1ccccc1,"hansch,c et al. (1995) ",1.48,7,6,0,1,0,0,0,0,0,0,,8,
pyridine-3-carbonitrile,C6H4N2,000100-54-9,N#Cc1cccnc1,sangster (1994) ,0.36,6,4,2,0,0,0,0,0,0,0,,8,
pyridin-3-ylmethanol,C6H7N1O1,000100-55-0,OCc1cccnc1,"hansch,c et al. (1995) ",-0.02,6,7,1,1,0,0,0,0,0,0,,8,
n-methylaniline,C7H9N1,000100-61-8,CNc1ccccc1,"hansch,c et al. (1995) ",1.66,7,9,1,0,0,0,0,0,0,0,,8,
phenylhydrazine,C6H8N2,000100-63-0,NNc1ccccc1,"hansch,c et al. (1995) ",1.25,6,8,2,0,0,0,0,0,0,0,,8,
n-cyclohexylidenehydroxylamine,C6H11N1O1,000100-64-1,ON=C1CCCCC1,tscats ,0.84,6,11,1,1,0,0,0,0,0,0,,8,
n-phenylhydroxylamine,C6H7N1O1,000100-65-2,ONc1ccccc1,"hansch,c et al. (1995) ",0.79,6,7,1,1,0,0,0,0,0,0,,8,
methoxybenzene,C7H8O1,000100-66-3,COc1ccccc1,"hansch,c et al. (1995) ",2.11,7,8,0,1,0,0,0,0,0,0,,8,
methylsulfanylbenzene,C7H8S1,000100-68-5,CSc1ccccc1,"hansch,c et al. (1995) ",2.74,7,8,0,0,1,0,0,0,0,0,,8,
2-ethenylpyridine,C7H7N1,000100-69-6,C=Cc1ccccn1,chemicals inspection and testing institu (1992) ,1.54,7,7,1,0,0,0,0,0,0,0,,8,
2-pyridinecarbonitrile,C6H4N2,000100-70-9,N#Cc1ccccn1,sangster (1994) ,0.45,6,4,2,0,0,0,0,0,0,0,,8,
2-ethylpyridine,C7H9N1,000100-71-0,CCc1ccccn1,"hansch,c et al. (1995) ",1.69,7,9,1,0,0,0,0,0,0,0,,8,
1-nitrosopiperidine,C5H10N2O1,000100-75-4,O=NN1CCCCC1,"hansch,c et al. (1995) ",0.36,5,10,2,1,0,0,0,0,0,0,,8,
1-azabicyclo[2.2.2]octane,C7H13N1,000100-76-5,C1CN2CCC1CC2,"hansch,c et al. (1995) ",1.38,7,13,1,0,0,0,0,0,0,0,,8,
3-hydroxybenzaldehyde,C7H6O2,000100-83-4,Oc1cccc(C=O)c1,"jin,lj et al. (1998) ",1.29,7,6,0,2,0,0,0,0,0,0,,9,
1-methoxy-3-methylbenzene,C8H10O1,000100-84-5,COc1cccc(C)c1,"hansch,c et al. (1995) ",2.66,8,10,0,1,0,0,0,0,0,0,,9,
anilazine,C9H5Cl3N4,000101-05-3,Clc1nc(Cl)nc(Nc2ccccc2Cl)n1,"saito,h et al. (1993) ",3.88,9,5,4,0,0,0,0,3,0,0,,16,
"4,4'-methylenebis(2-chloroaniline)",C13H12Cl2N2,000101-14-4,Nc1ccc(Cc2ccc(N)c(Cl)c2)cc1Cl,chemicals inspection and testing institu (1992) ,3.91,13,12,2,0,0,0,0,2,0,0,,17,
chlorpropham,C10H12Cl1N1O2,000101-21-3,CC(C)OC(=O)Nc1cccc(Cl)c1,"hansch,c et al. (1995) ",3.51,10,12,1,2,0,0,0,1,0,0,,14,
methyl 2-phenylacetate,C9H10O2,000101-41-7,COC(=O)Cc1ccccc1,"hansch,c et al. (1995) ",1.83,9,10,0,2,0,0,0,0,0,0,,11,
"1,1-dimethyl-3-phenylurea",C9H12N2O1,000101-42-8,CN(C)C(=O)Nc1ccccc1,"hansch,c et al. (1995) ",0.98,9,12,2,1,0,0,0,0,0,0,,12,
4-(phenylmethyl)phenol,C13H12O1,000101-53-1,Oc1ccc(Cc2ccccc2)cc1,chemicals inspection and testing institu (1992) ,3.47,13,12,0,1,0,0,0,0,0,0,,14,
4-[(4-aminophenyl)methyl]aniline,C13H14N2,000101-77-9,Nc1ccc(Cc2ccc(N)cc2)cc1,"hansch,c et al. (1995) ",1.59,13,14,2,0,0,0,0,0,0,0,,15,
4-(4-aminophenoxy)aniline,C12H12N2O1,000101-80-4,Nc1ccc(Oc2ccc(N)cc2)cc1,biobyte (1995) ,1.36,12,12,2,1,0,0,0,0,0,0,,15,
phenylmethylbenzene,C13H12,000101-81-5,C(c1ccccc1)c2ccccc2,"hansch,c et al. (1995) ",4.14,13,12,0,0,0,0,0,0,0,0,,13,
phenoxybenzene,C12H10O1,000101-84-8,O(c1ccccc1)c2ccccc2,"hansch,c et al. (1995) ",4.21,12,10,0,1,0,0,0,0,0,0,,13,
ethyl 2-phenylacetate,C10H12O2,000101-97-3,CCOC(=O)Cc1ccccc1,"hansch,c et al. (1995) ",2.28,10,12,0,2,0,0,0,0,0,0,,12,
ethyl n-phenylcarbamate,C9H11N1O2,000101-99-5,CCOC(=O)Nc1ccccc1,"hansch,c et al. (1995) ",2.3,9,11,1,2,0,0,0,0,0,0,,12,
n-(phenylcarbamoyl)acetamide,C9H10N2O2,000102-03-4,CC(=O)NC(=O)Nc1ccccc1,"sotomatsu,t et al. (1987) ",1.6,9,10,2,2,0,0,0,0,0,0,,13,
"1,3-di(phenyl)urea",C13H12N2O1,000102-07-8,O=C(Nc1ccccc1)Nc2ccccc2,"hansch,c et al. (1995) ",3,13,12,2,1,0,0,0,0,0,0,,16,
diphenyl carbonate,C13H10O3,000102-09-0,O=C(Oc1ccccc1)Oc2ccccc2,"hansch,c et al. (1995) ",3.28,13,10,0,3,0,0,0,0,0,0,,16,
(3-hydroxyphenyl) acetate,C8H8O3,000102-29-4,CC(=O)Oc1cccc(O)c1,"hansch,c et al. (1995) ",1.23,8,8,0,3,0,0,0,0,0,0,,11,
"2-(3,4-dihydroxyphenyl)acetic acid",C8H8O4,000102-32-9,OC(=O)Cc1ccc(O)c(O)c1,sangster (1994) ,0.98,8,8,0,4,0,0,0,0,0,0,,12,
"ethyl cinnamate,3,4-dihydroxy",C11H12O4,000102-37-4,CCOC(=O)C=Cc1ccc(O)c(O)c1,"hansch,c et al. (1995) ",2.56,11,12,0,4,0,0,0,0,0,0,,15,
4-methoxy-2-methylaniline,C8H11N1O1,000102-50-1,COc1ccc(N)c(C)c1,"debnath,ak et al. (1992) ",1.23,8,11,1,1,0,0,0,0,0,0,,10,
"2,5-dimethoxyaniline",C8H11N1O2,000102-56-7,COc1ccc(OC)c(N)c1,"hansch,c et al. (1995) ",1.2,8,11,1,2,0,0,0,0,0,0,,11,
"n,n-dipropylpropan-1-amine",C9H21N1,000102-69-2,CCCN(CCC)CCC,"hansch,c et al. (1995) ",2.79,9,21,1,0,0,0,0,0,0,0,,10,
"n,n-di(prop-2-enyl)prop-2-en-1-amine",C9H15N1,000102-70-5,C=CCN(CC=C)CC=C,"hansch,c et al. (1995) ",2.59,9,15,1,0,0,0,0,0,0,0,,10,
2-(bis(2-hydroxyethynyl)amino)ethynol,C6H15N1O3,000102-71-6,OC#CN(C#CO)C#CO,"hansch,c et al. (1995) ",-1,6,15,1,3,0,0,0,0,0,0,,10,
"1,3-diacetyloxypropan-2-yl acetate",C9H14O6,000102-76-1,CC(=O)OCC(COC(C)=O)OC(C)=O,"hansch,c et al. (1995) ",0.25,9,14,0,6,0,0,0,0,0,0,,15,
3-phenylpropanamide,C9H11N1O1,000102-93-2,NC(=O)CCc1ccccc1,"hansch,c et al. (1995) ",0.91,9,11,1,1,0,0,0,0,0,0,,11,
n-(phenylmethyl)propan-2-amine,C10H15N1,000102-97-6,CC(C)NCc1ccccc1,"kril,mb & fung,hl (1990) ",1.83,10,15,1,0,0,0,0,0,0,0,,11,
2-(phenylamino)acetic acid,C8H9N1O2,000103-01-5,OC(=O)CNc1ccccc1,"hansch,c et al. (1995) ",0.62,8,9,1,2,0,0,0,0,0,0,,11,
(phenylamino)urea,C7H9N3O1,000103-03-7,NC(=O)NNc1ccccc1,"hansch,c et al. (1995) ",0.13,7,9,3,1,0,0,0,0,0,0,,11,
2-phenylsulfanylacetic acid,C8H8O2S1,000103-04-8,OC(=O)CSc1ccccc1,"hansch,c et al. (1995) ",1.88,8,8,0,2,1,0,0,0,0,0,,11,
methyl 3-phenylpropanoate,C10H12O2,000103-25-3,COC(=O)CCc1ccccc1,"hansch,c et al. (1995) ",2.32,10,12,0,2,0,0,0,0,0,0,,12,
"cinnamic acid, methyl ester",C10H10O2,000103-26-4,COC(=O)C=Cc1ccccc1,"hansch,c et al. (1995) ",2.62,10,10,0,2,0,0,0,0,0,0,,12,
2-phenylethylbenzene,C14H14,000103-29-7,C(Cc1ccccc1)c2ccccc2,"hansch,c et al. (1995) ",4.79,14,14,0,0,0,0,0,0,0,0,,14,
stilbene,C14H12,000588-59-0,c1ccc(cc1)C=Cc2ccccc2,"hansch,c et al. (1995) ",4.81,14,12,0,0,0,0,0,0,0,0,,14,
n-(phenylmethyl)aniline,C13H13N1,000103-32-2,C(Nc1ccccc1)c2ccccc2,"hansch,c et al. (1995) ",3.13,13,13,1,0,0,0,0,0,0,0,,14,
di(phenyl)diazene,C12H10N2,000103-33-3,c1ccc(cc1)N=Nc2ccccc2,"hansch,c et al. (1995) ",3.82,12,10,2,0,0,0,0,0,0,0,,14,
"cinnamic acid, ethyl ester",C11H12O2,000103-36-6,CCOC(=O)C=Cc1ccccc1,"hansch,c et al. (1995) ",2.99,11,12,0,2,0,0,0,0,0,0,,13,
phenylmethyl 3-methylbutanoate,C12H16O2,000103-38-8,CC(C)CC(=O)OCc1ccccc1,"yang,h et al. (1987) ",3.26,12,16,0,2,0,0,0,0,0,0,,14,
2-phenylethyl acetate,C10H12O2,000103-45-7,CC(=O)OCCc1ccccc1,"hansch,c et al. (1995) ",2.3,10,12,0,2,0,0,0,0,0,0,,12,
2-(phenylmethylsulfanyl)acetic acid,C9H10O2S1,000103-46-8,OC(=O)CSCc1ccccc1,"hansch,c et al. (1995) ",2.1,9,10,0,2,1,0,0,0,0,0,,12,
1-phenyl-n-(phenylmethyl)methanamine,C14H15N1,000103-49-1,C(NCc1ccccc1)c2ccccc2,biobyte (1995) ,2.67,14,15,1,0,0,0,0,0,0,0,,15,
phenylmethoxymethylbenzene,C14H14O1,000103-50-4,C(OCc1ccccc1)c2ccccc2,"hansch,c et al. (1995) ",3.31,14,14,0,1,0,0,0,0,0,0,,15,
2-bromoethylbenzene,C8H9Br1,000103-63-9,BrCCc1ccccc1,"hansch,c et al. (1995) ",3.09,8,9,0,0,0,0,0,0,1,0,,9,
propylbenzene,C9H12,000103-65-1,CCCc1ccccc1,sangster (1994) ,3.69,9,12,0,0,0,0,0,0,0,0,,9,
n-methyl-1-phenylmethanamine,C8H11N1,000103-67-3,CNCc1ccccc1,"hansch,c et al. (1995) ",1.52,8,11,1,0,0,0,0,0,0,0,,9,
n-ethylaniline,C8H11N1,000103-69-5,CCNc1ccccc1,"hansch,c et al. (1995) ",2.16,8,11,1,0,0,0,0,0,0,0,,9,
n-phenylformamide,C7H7N1O1,000103-70-8,O=CNc1ccccc1,"hansch,c et al. (1995) ",1.15,7,7,1,1,0,0,0,0,0,0,,9,
isothiocyanatobenzene,C7H5N1S1,000103-72-0,S=C=Nc1ccccc1,"hansch,c et al. (1995) ",3.28,7,5,1,0,1,0,0,0,0,0,,9,
ethoxybenzene,C8H10O1,000103-73-1,CCOc1ccccc1,"hansch,c et al. (1995) ",2.51,8,10,0,1,0,0,0,0,0,0,,9,
2-(2-pyridyl)ethanol,C7H9N1O1,000103-74-2,OCCc1ccccn1,"hansch,c et al. (1995) ",0.12,7,9,1,1,0,0,0,0,0,0,,9,
1-phenylpropan-2-one,C9H10O1,000103-79-7,CC(=O)Cc1ccccc1,"hansch,c et al. (1995) ",1.44,9,10,0,1,0,0,0,0,0,0,,10,
2-phenylacetamide,C8H9N1O1,000103-81-1,NC(=O)Cc1ccccc1,"hansch,c et al. (1995) ",0.45,8,9,1,1,0,0,0,0,0,0,,10,
2-phenylacetic acid,C8H8O2,000103-82-2,OC(=O)Cc1ccccc1,"hansch,c et al. (1995) ",1.41,8,8,0,2,0,0,0,0,0,0,,10,
"n,n-dimethyl-1-phenylmethanamine",C9H13N1,000103-83-3,CN(C)Cc1ccccc1,"hansch,c et al. (1995) ",1.98,9,13,1,0,0,0,0,0,0,0,,10,
n-phenylacetamide,C8H9N1O1,000103-84-4,CC(=O)Nc1ccccc1,"hansch,c et al. (1995) ",1.16,8,9,1,1,0,0,0,0,0,0,,10,
phenylthiourea,C7H8N2S1,000103-85-5,NC(=S)Nc1ccccc1,"govers,h et al. (1986) ",0.71,7,8,2,0,1,0,0,0,0,0,,10,
n-(4-bromophenyl)acetamide,C8H8Br1N1O1,000103-88-8,CC(=O)Nc1ccc(Br)cc1,"hansch,c et al. (1995) ",2.29,8,8,1,1,0,0,0,0,1,0,,11,
n-(4-methylphenyl)acetamide,C9H11N1O1,000103-89-9,CC(=O)Nc1ccc(C)cc1,"nakagawa,y et al. (1992) ",1.7,9,11,1,1,0,0,0,0,0,0,,11,
n-(4-hydroxyphenyl)acetamide,C8H9N1O2,000103-90-2,CC(=O)Nc1ccc(O)cc1,sangster (1994) ,0.46,8,9,1,2,0,0,0,0,0,0,,11,