Names,Formula,CAS No,SMILES,Reference,Exp logp,C,H,N,O,S,P,F,Cl,Br,I,,,
"2,4,6-trichloropyridine",C5H2Cl3N1,016063-69-7,Clc1cc(Cl)nc(Cl)c1,"hansch,c et al. (1995) ",2.68,5,2,1,0,0,0,0,3,0,0,,9,
"2,3,5-trichloropyridine",C5H2Cl3N1,016063-70-0,Clc1cnc(Cl)c(Cl)c1,"hansch,c et al. (1995) ",3.11,5,2,1,0,0,0,0,3,0,0,,9,
4-methyl-1h-indole,C9H9N1,016096-32-5,Cc1cccc2[nH]ccc12,"ritter,s et al. (1995) ",2.54,9,9,1,0,0,0,0,0,0,0,,10,
"2,5-dichloropyridine",C5H3Cl2N1,016110-09-1,Clc1ccc(Cl)nc1,"hansch,c et al. (1995) ",2.4,5,3,1,0,0,0,0,2,0,0,,8,
5-[3-(2-carboxy-4-oxochromen-5-yl)oxy-2-hydroxypropoxy]-4-oxochromene-2-carboxylic acid,C23H16O11,016110-51-3,OC(COc1cccc2OC(=CC(=O)c12)C(O)=O)COc3cccc4OC(=CC(=O)c34)C(O)=O,pomona (1987) ,1.92,23,16,0,11,0,0,0,0,0,0,,34,
1h-indole-4-carbonitrile,C9H6N2,016136-52-0,N#Cc1cccc2[nH]ccc12,"hansch,c et al. (1995) ",2.46,9,6,2,0,0,0,0,0,0,0,,11,
"1-(3-methoxyphenyl)pyrrolidine-2,5-dione",C11H11N1O3,016141-40-5,COc1cccc(c1)N2C(=O)CCC2=O,"hansch,c & leo,aj (1985) ",0.18,11,11,1,3,0,0,0,0,0,0,,15,
"n-[3,5-bis(trifluoromethyl)phenyl]acetamide",C10H7F6N1O1,016143-84-3,CC(=O)Nc1cc(cc(c1)C(F)(F)F)C(F)(F)F,"nakagawa,y et al. (1992) ",3.72,10,7,1,1,0,0,6,0,0,0,,18,
phenyl methanesulfonate,C7H8O3S1,016156-59-5,C[S](=O)(=O)Oc1ccccc1,"hansch,c et al. (1995) ",1.25,7,8,0,3,1,0,0,0,0,0,,11,
n-pyrimidin-4-ylacetamide,C6H7N3O1,016166-22-6,CC(=O)Nc1ccncn1,"yamagami,c et al. (1990) ",0.03,6,7,3,1,0,0,0,0,0,0,,10,
ethylidene norbornene,C9H12,016219-75-3,CC=C1CC2CC1C=C2,chemicals inspection and testing institu (1992) ,3.82,9,12,0,0,0,0,0,0,0,0,,9,
"4-(phenylmethyl)-1,2,4-triazole",C9H9N3,016227-13-7,CC(C)CC1=NN=C(N1CC2=CC=CC=C2)SCC3=CC=C(C=C3)OC,"hansch,c et al. (1995) ",0.74,9,9,3,0,0,0,0,0,0,0,,12,
"n2,n2,n4,n6,n6-pentamethyl-1,3,5-triazine-2,4,6-triamine",C8H16N6,016268-62-5,CNc1nc(nc(n1)N(C)C)N(C)C,"hansch,c & leo,aj (1985) ",1.83,8,16,6,0,0,0,0,0,0,0,,14,
"n2,n2-diethyl-n4,n4,n6,n6-tetramethyl-1,3,5-triazine-2,4,6-triamine",C11H22N6,016268-75-0,CCN(CC)c1nc(nc(n1)N(C)C)N(C)C,"hansch,c & leo,aj (1985) ",3.45,11,22,6,0,0,0,0,0,0,0,,17,
"thieno(2,3-d)-pyrmidine,4-chloro",C6H3Cl1N2S1,016269-66-2,Clc1c2ccsc2ncn1,"hansch,c & leo,aj (1985) ",1.79,6,3,2,0,1,0,0,1,0,0,,10,
(amino-ethylsulfanylphosphoryl)oxyethane,C4H12N1O2P1S1,016271-10-6,CCO[P](N)(=O)SCC,"hansch,c & leo,aj (1985) ",0.15,4,12,1,2,1,1,0,0,0,0,,9,
n-(methoxy-methylsulfanylphosphoryl)propan-1-amine,C5H14N1O2P1S1,016271-16-2,CCCN[P](=O)(OC)SC,"hansch,c & leo,aj (1985) ",0.65,5,14,1,2,1,1,0,0,0,0,,10,
2-methylsulfonylquinoxaline,C9H8N2O2S1,016310-37-5,C[S](=O)(=O)c1cnc2ccccc2n1,"hansch,c & leo,aj (1985) ",0.79,9,8,2,2,1,0,0,0,0,0,,14,
n-ethyl-n-propan-2-ylnitrous amide,C5H12N2O1,016339-04-1,CCN(N=O)C(C)C,"hansch,c et al. (1995) ",0.9,5,12,2,1,0,0,0,0,0,0,,8,
1-methyl-4-nitrosopiperazine,C5H11N3O1,016339-07-4,CN1CCN(CC1)N=O,"hansch,c & leo,aj (1985) ",0.2,5,11,3,1,0,0,0,0,0,0,,9,
"n,n-bis(cyanomethyl)nitrous amide",C4H4N4O1,016339-18-7,O=NN(CC#N)CC#N,"hansch,c & leo,aj (1985) ",0.04,4,4,4,1,0,0,0,0,0,0,,9,
4-methoxyquinazoline,C9H8N2O1,016347-95-8,COc1ncnc2ccccc12,"hansch,c & leo,aj (1985) ",1.97,9,8,2,1,0,0,0,0,0,0,,12,
n-phenyl-n-(phenylmethyl)formamide,C14H13N1O1,016350-99-5,O=CN(Cc1ccccc1)c2ccccc2,"hansch,c & leo,aj (1985) ",2.62,14,13,1,1,0,0,0,0,0,0,,16,
n-(4-hydroxy-3-methylphenyl)acetamide,C9H11N1O2,016375-90-9,CC(=O)Nc1ccc(O)c(C)c1,"hansch,c & leo,aj (1985) ",0.79,9,11,1,2,0,0,0,0,0,0,,12,
(5-methyl-2-propan-2-ylcyclohexyl) acetate,C12H22O2,016409-45-3,CC(C)C1CCC(C)CC1OC(C)=O,"griffin,s et al. (1999) ",4,12,22,0,2,0,0,0,0,0,0,,14,
"[11-hydroxy-17-(2-hydroxyacetyl)-10,13-dimethyl-3-oxo-2,6,7,8,9,11,12,14,15,16-decahydro-1h-cyclopenta[a]phenanthren-17-yl] acetate",C23H32O6,016463-74-4,CC(=O)OC1(CCC2C3CCC4=CC(=O)CCC4(C)C3C(O)CC12C)C(=O)CO,sangster (1993) ,2.3,23,32,0,6,0,0,0,0,0,0,,29,
"card-20(22)-enolide, 3-[[2,6-dideoxy-4-o-(2,6-di",C35H54O10,016479-50-8,CC1C(C(CC(O1)OC2C(OC(CC2O)OC3CCC4(C(C3)CCC5C4CCC6(C5(CCC6C7=CC(=O)OC7)O)C)C)C)O)O,sangster (1993) ,2.15,35,54,0,10,0,0,0,0,0,0,,45,
2-[(3-methylphenyl)amino]benzoic acid,C14H13N1O2,016524-22-4,Cc1cccc(Nc2ccccc2C(O)=O)c1,"terada,h et al. (1974) ",4.88,14,13,1,2,0,0,0,0,0,0,,17,
m-propoxyphenol,C9H12O2,016533-50-9,CCCOc1cccc(O)c1,"hansch,c & leo,aj (1985) ",2.59,9,12,0,2,0,0,0,0,0,0,,11,
3-naphthalen-1-yloxypropanoic acid,C13H12O3,016563-41-0,OC(=O)CCOc1cccc2ccccc12,"chamberlain,k et al. (1986) ",3,13,12,0,3,0,0,0,0,0,0,,16,
4-naphthalen-1-yloxybutanoic acid,C14H14O3,016563-45-4,OC(=O)CCCOc1cccc2ccccc12,sangster (1994) ,3.5,14,14,0,3,0,0,0,0,0,0,,17,
quinoxalin-5-amine,C8H7N3,016566-20-4,Nc1cccc2nccnc12,"hansch,c & leo,aj (1985) ",1.29,8,7,3,0,0,0,0,0,0,0,,11,
2-(benzotriazol-2-yl)-2-methylpropanoic acid,C10H11N3O2,016583-98-5,CC(C)(n1nc2ccccc2n1)C(O)=O,"sparatore,f et al. (1988) ",0.64,10,11,3,2,0,0,0,0,0,0,,15,
2-methylbenzotriazole,C7H7N3,016584-00-2,CN1N=C2C=CC=CC2=N1,"hansch,c et al. (1995) ",1.64,7,7,3,0,0,0,0,0,0,0,,10,
2-ethylbenzotriazole,C8H9N3,016584-04-6,CCn1nc2ccccc2n1,"hansch,c et al. (1995) ",2.1,8,9,3,0,0,0,0,0,0,0,,11,
1-ethylbenzotriazole,C8H9N3,016584-05-7,CCn1nnc2ccccc12,"hansch,c et al. (1995) ",1.58,8,9,3,0,0,0,0,0,0,0,,11,
"2,3-dichlorobiphenyl",C12H8Cl2,016605-91-7,Clc1cccc(c2ccccc2)c1Cl,"hansch,c & leo,aj (1985) ",5.02,12,8,0,0,0,0,0,2,0,0,,14,
"2,4',5-trichlorobiphenyl",C12H7Cl3,016606-02-3,Clc1ccc(cc1)c2cc(Cl)ccc2Cl,"hansch,c & leo,aj (1985) ",5.69,12,7,0,0,0,0,0,3,0,0,,15,
bis(4-methylphenyl)methanimine,C15H15N1,016620-75-0,Cc1ccc(C(=N)c2ccc(C)cc2)cc1,"hansch,c & leo,aj (1985) ",3.71,15,15,1,0,0,0,0,0,0,0,,16,
"n-[2,6-di(propan-2-yl)phenyl]acetamide",C14H21N1O1,016637-13-1,CC(C)c1cccc(C(C)C)c1NC(C)=O,"nakagawa,y et al. (1992) ",2.41,14,21,1,1,0,0,0,0,0,0,,16,
"5-[2-(3,4-dimethoxyphenyl)ethyl-methylamino]-2-propan-2-yl-2-(3,4,5-trimethoxyphenyl)pentanenitrile",C28H40N2O5,016662-47-8,COc1ccc(CCN(C)CCCC(C#N)(C(C)C)c2cc(OC)c(OC)c(OC)c2)cc1OC,biobyte starlist (2009) ,3.71,28,40,2,5,0,0,0,0,0,0,,35,
methyl n-(2-fluorophenyl)carbamate,C8H8F1N1O2,016664-12-3,COC(=O)Nc1ccccc1F,"takahashi,k et al. (1988) ",1.66,8,8,1,2,0,0,1,0,0,0,,12,
"n-(2,6-diethylphenyl)acetamide",C12H17N1O1,016665-89-7,CCc1cccc(CC)c1NC(C)=O,"nakagawa,y et al. (1992) ",1.85,12,17,1,1,0,0,0,0,0,0,,14,
ethephon,C2H6Cl1O3P1,016672-87-0,O[P](O)(=O)CCCl,usda pesticide properties database ,-0.22,2,6,0,3,0,1,0,1,0,0,,7,
2-bromo-1-methyl-4-nitroimidazole,C4H4Br1N3O2,016681-63-3,Cn1cc(nc1Br)[N+]([O-])=O,"suwinski,j et al. (1985) ",0.33,4,4,3,2,0,0,0,0,1,0,,10,
n-methyl-n-(4-methylphenyl)sulfonylacetamide,C10H13N1O3S1,016697-83-9,CN(C(C)=O)[S](=O)(=O)c1ccc(C)cc1,"larsen,jd et al. (1988) ",1.73,10,13,1,3,1,0,0,0,0,0,,15,
methyl n-(4-fluorophenyl)carbamate,C8H8F1N1O2,016744-99-3,COC(=O)Nc1ccc(F)cc1,"takahashi,k et al. (1988) ",1.95,8,8,1,2,0,0,1,0,0,0,,12,
methomyl,C5H10N2O2S1,016752-77-5,CNC(=O)O\N=C(/C)SC,"hansch,c et al. (1995) ",0.6,5,10,2,2,1,0,0,0,0,0,,10,
"2-(hydroxymethyl)-6-phenylsulfanyloxane-3,4,5-triol",C12H16O5S1,016758-34-2,OCC1OC(Sc2ccccc2)C(O)C(O)C1O,"hansch,c & leo,aj (1985) ",-0.56,12,16,0,5,1,0,0,0,0,0,,18,
"3,4,5-trichloroveratrole",C8H7Cl3O2,016766-29-3,COc1cc(Cl)c(Cl)c(Cl)c1OC,"lun,r et al. (1995) ",4.01,8,7,0,2,0,0,0,3,0,0,,13,
1(3cl2ohpr)-2-me-5-no2 imidazole,C7H10Cl1N3O3,016773-42-5,c1(N(=O)(=O))cnc(C)n1CC(O)CCl,"hansch,c & leo,aj (1985) ",0.6,7,10,3,3,0,0,0,1,0,0,,14,
n1-(4-chlorophenyl)sulfanilamide,C12H11Cl1N2O2S1,016803-92-2,Nc1ccc(cc1)[S](=O)(=O)Nc2ccc(Cl)cc2,"hansch,c et al. (1995) ",2.71,12,11,2,2,1,0,0,1,0,0,,18,
4-amino-n-(4-methylphenyl)benzenesulfonamide,C13H14N2O2S1,016803-95-5,Cc1ccc(N[S](=O)(=O)c2ccc(N)cc2)cc1,"hansch,c et al. (1995) ",2.11,13,14,2,2,1,0,0,0,0,0,,18,
4-amino-n-(2-methylphenyl)benzenesulfonamide,C13H14N2O2S1,016803-96-6,Cc1ccccc1N[S](=O)(=O)c2ccc(N)cc2,"hansch,c et al. (1995) ",2.03,13,14,2,2,1,0,0,0,0,0,,18,
"4-pentadecylbenzene-1,3-diol",C21H36O2,016825-54-0,CCCCCCCCCCCCCCCc1ccc(O)cc1O,"itokawa,h et al. (1989) ",8.29,21,36,0,2,0,0,0,0,0,0,,23,
2-methoxythiophene,C5H6O1S1,016839-97-7,COc1sccc1,"yamagami,c & masaki,y (1995) ",2.13,5,6,0,1,1,0,0,0,0,0,,7,
3-hydroxy-3h-2-benzofuran-1-one,C8H6O3,016859-59-9,OC1OC(=O)c2ccccc12,"hansch,c & leo,aj (1985) ",0.57,8,6,0,3,0,0,0,0,0,0,,11,
"2,3-dimethylpyrido[2,1-b]pyrimidin-4-one",C10H10N2O1,016867-29-1,CC1=C(C)C(=O)N2C=CC=CC2=N1,sangster (1994) ,1,10,10,2,1,0,0,0,0,0,0,,13,
"ethyl 6-methyl-4-oxopyrido[1,6-a]pyrimidine-3-carboxylate",C12H12N2O3,016867-53-1,CCOC(=O)C1=CN=C2C=CC=C(C)N2C1=O,"hansch,c & leo,aj (1985) ",0.96,12,12,2,3,0,0,0,0,0,0,,17,
p-methylaminobenzenesulfonamide,C7H10N2O2S1,016891-79-5,S(N)(=O)(=O)c1ccc(NC)cc1,"hansch,c & leo,aj (1985) ",0.08,7,10,2,2,1,0,0,0,0,0,,12,
[2-hydroxy-3-(phenoxy)propyl] 2-methylprop-2-enoate,C13H16O4,016926-87-7,CC(=C)C(=O)OCC(O)COc1ccccc1,sangster (1993) ,2.27,13,16,0,4,0,0,0,0,0,0,,17,
"3-buten-2-one,4-(2-methylphenyl)-",C11H12O1,016927-82-5,Cc1ccccc1C=CC(=O)(C),"yamagami,c et al. (1998) ",2.6,11,12,0,1,0,0,0,0,0,0,,12,
"5-propan-2-ylimidazolidine-2,4-dione",C6H10N2O2,016935-34-5,CC(C)C1NC(=O)NC1=O,sangster (1994) ,-0.36,6,10,2,2,0,0,0,0,0,0,,10,
3-amino-1-(phenylmethyl)urea,C8H11N3O1,016956-42-6,NNC(=O)NCc1ccccc1,"hansch,c & leo,aj (1985) ",-0.22,8,11,3,1,0,0,0,0,0,0,,12,
"1,4-benzenedisulfonamide",C6H8N2O4S2,016993-45-6,N[S](=O)(=O)c1ccc(cc1)[S](N)(=O)=O,"hansch,c et al. (1995) ",-0.96,6,8,2,4,2,0,0,0,0,0,,14,
8-hexadecenoic acid,C16H30O2,017004-62-5,CCCCCCCC=CCCCCCCC(O)=O,sangster (1994) ,6.58,16,30,0,2,0,0,0,0,0,0,,18,
methyl 4-acetamidobenzoate,C10H11N1O3,017012-22-5,COC(=O)c1ccc(NC(C)=O)cc1,"hansch,c et al. (1995) ",1.79,10,11,1,3,0,0,0,0,0,0,,14,
"5,5-dibutyl-1,3-diazinane-2,4,6-trione",C12H20N2O3,017013-41-1,CCCCC1(CCCC)C(=O)NC(=O)NC1=O,"wong,o & mckeown,rh (1988) ",2.7,12,20,2,3,0,0,0,0,0,0,,17,
"4-hydroxy-6,9a-dimethyl-3-methylidene-3a,4,5,6,6a,7,8,9b-octahydroazuleno[7,8-d]furan-2,9-dione",C15H20O4,017066-68-1,CC1CC(O)C2C(OC(=O)C2=C)C3(C)C1CCC3=O,sangster (1994) ,0.23,15,20,0,4,0,0,0,0,0,0,,19,
4-(4-methoxyphenyl)sulfonylaniline,C13H13N1O3S1,017078-72-7,COc1ccc(cc1)[S](=O)(=O)c2ccc(N)cc2,"altomare,c et al. (1991) ",1.96,13,13,1,3,1,0,0,0,0,0,,18,
(ethoxy-phenylsulfanylphosphoryl)sulfanylbenzene,C14H15O2P1S2,017109-49-8,CCO[P](=O)(Sc1ccccc1)Sc2ccccc2,"saito,h et al. (1993) ",3.48,14,15,0,2,2,1,0,0,0,0,,19,
1-(isothiocyanatomethyl)naphthalene,C12H9N1S1,017112-82-2,S=C=NCc1cccc2ccccc12,"hansch,c & leo,aj (1985) ",4.42,12,9,1,0,1,0,0,0,0,0,,14,
"pyrimidine, 4-chloro-",C4H3Cl1N2,017180-93-7,Clc1ccncn1,"yamagami,c et al. (1990) ",0.47,4,3,2,0,0,0,0,1,0,0,,7,
"pyrimidine, 5-chloro-",C4H3Cl1N2,017180-94-8,Clc1cncnc1,"yamagami,c et al. (1990) ",0.47,4,3,2,0,0,0,0,1,0,0,,7,
2-acetamido-n-methyl-3-phenylpropanamide,C12H16N2O2,017186-60-6,CNC(=O)C(Cc1ccccc1)NC(C)=O,"hansch,c & leo,aj (1985) ",0.4,12,16,2,2,0,0,0,0,0,0,,16,
"6-dimethylamino-4,4-di(phenyl)heptan-3-ol",C21H29N1O1,017199-55-2,CCC(O)C(CC(C)N(C)C)(c1ccccc1)c2ccccc2,sangster (1994) ,4.27,21,29,1,1,0,0,0,0,0,0,,23,
"1,2,5-oxadiazole-3,4-diamine",C2H4N4O1,017220-38-1,Nc1nonc1N,"calvino,r et al. (1992) ",-0.49,2,4,4,1,0,0,0,0,0,0,,7,
3-chlorothiophene,C4H3Cl1S1,017249-80-8,Clc1cscc1,"yamagami,c & masaki,y (1995) ",2.55,4,3,0,0,1,0,0,1,0,0,,6,
"n,n-dimethylpyridazin-3-amine",C6H9N3,017258-31-0,CN(C)c1cccnn1,"hansch,c et al. (1995) ",0.29,6,9,3,0,0,0,0,0,0,0,,9,
"n,n-dimethylpyridazin-4-amine",C6H9N3,017258-38-7,CN(C)c1ccnnc1,"hansch,c et al. (1995) ",-0.09,6,9,3,0,0,0,0,0,0,0,,9,
m-chlorobenzenesulfonamide,C6H6Cl1N1O2S1,017260-71-8,N[S](=O)(=O)c1cccc(Cl)c1,"hansch,c et al. (1995) ",1.29,6,6,1,2,1,0,0,1,0,0,,11,
"n'-[1-[4-hydroxy-5-(hydroxymethyl)oxolan-2-yl]-2-oxopyrimidin-4-yl]-n,n-dimethylmethanimidamide",C12H18N4O4,017331-11-2,CN(C)C=NC1=NC(=O)N(C=C1)C2CC(O)C(CO)O2,biobyte (1995) ,-1.54,12,18,4,4,0,0,0,0,0,0,,20,
2-methyl-2-propan-2-yloxypropane,C7H16O1,017348-59-3,CC(C)OC(C)(C)C,"bintein,s et al. (1993) ",2.14,7,16,0,1,0,0,0,0,0,0,,8,
2-hydroxy-n-(morpholin-4-ylmethyl)benzamide,C12H16N2O3,017357-04-9,Oc1ccccc1C(=O)NCN2CCOCC2,"bundgaard,h et al. (1986) ",1.27,12,16,2,3,0,0,0,0,0,0,,17,
cinnolin-3-amine,C8H7N3,017372-79-1,Nc1cc2ccccc2nn1,"hansch,c et al. (1995) ",1,8,7,3,0,0,0,0,0,0,0,,11,
9-carboxythioxanthene,C14H10O2S1,017394-14-8,OC(=O)C1c2ccccc2Sc3ccccc13,"hansch,c et al. (1995) ",2.57,14,10,0,2,1,0,0,0,0,0,,17,
3-chlorocinnoline,C8H5Cl1N2,017404-90-9,Clc1cc2ccccc2nn1,"hansch,c & leo,aj (1985) ",1.57,8,5,2,0,0,0,0,1,0,0,,11,
2-(p-clphenoxy)-2-et-propionic ac,C11H13Cl1O3,017413-90-0,CCC(C)(Oc1ccc(Cl)cc1)C(=O)(O),"hansch,c & leo,aj (1985) ",2.9,11,13,0,3,0,0,0,1,0,0,,15,
indole-7-chloro,C8H6Cl1N1,053294-05-6,C1=CC2=C(C(=C1)Cl)NC=C2,biobyte starlist (2009) ,3.25,8,6,1,0,0,0,0,1,0,0,,10,
n'-acetylpyridine-2-carbohydrazide,C8H9N3O2,017433-31-7,CC(=O)NNC(=O)c1ccccn1,"hansch,c & leo,aj (1985) ",-0.57,8,9,3,2,0,0,0,0,0,0,,13,
"hydrazinecarboxamide, n-(4-nitrophenyl)",C7H8N4O3,017433-93-1,NNC(=O)Nc1ccc(cc1)[N+]([O-])=O,"kramer,cr & beck,l (1981) ",-0.18,7,8,4,3,0,0,0,0,0,0,,14,
"1,4,7,10,13,16-hexaoxacyclooctadecane",C12H24O6,017455-13-9,C1COCCOCCOCCOCCOCCO1,"hansch,c et al. (1995) ",-0.68,12,24,0,6,0,0,0,0,0,0,,18,
17455-25-3,C28H40O10,104946-54-5,C1COCCOc2ccccc2OCCOCCOCCOCCOc3ccccc3OCCOCCO1,"stolwijk,tb et al. (1989) ",1.82,28,40,0,10,0,0,0,0,0,0,,38,
"2,4-diaminoquinazoline,5-chloro",C8H7Cl1N4,017511-21-6,Clc1cccc2c1c(N)nc(N)n2,biobyte starlist (2009) ,1.72,8,7,4,0,0,0,0,1,0,0,,13,
"2-propenoic acid, 3-(3-methoxyphenyl)-, (e)-",C10H10O3,017570-26-2,COc1cccc(\C=C\C(O)=O)c1,sangster (1993) ,2.37,10,10,0,3,0,0,0,0,0,0,,13,
"2,3-dimethylchromen-4-one",C11H10O2,017584-90-6,CC1=C(C)C(=O)c2ccccc2O1,pomona (1987) ,2.31,11,10,0,2,0,0,0,0,0,0,,13,
"7-methoxy-2,2-dimethylchromene",C12H14O2,017598-02-6,COc1ccc2C=CC(C)(C)Oc2c1,"hansch,c et al. (1995) ",3.35,12,14,0,2,0,0,0,0,0,0,,14,
"n,n-dimethyl-1,3-bis(phenylsulfonylsulfanyl)propan-2-amine",C17H21N1O4S4,017606-31-4,CN(C)C(CS[S](=O)(=O)c1ccccc1)CS[S](=O)(=O)c2ccccc2,"hansch,c et al. (1995) ",3.36,17,21,1,4,4,0,0,0,0,0,,26,
4-phenylquinazoline,C14H10N2,017629-01-5,c1ccc(cc1)c2ncnc3ccccc23,"hansch,c & leo,aj (1985) ",2.71,14,10,2,0,0,0,0,0,0,0,,16,
1-methyl-4-phenylquinazolin-2-one,C15H12N2O1,017629-04-8,CN1C(=O)N=C(c2ccccc2)c3ccccc13,"hansch,c & leo,aj (1985) ",1.79,15,12,2,1,0,0,0,0,0,0,,18,
2-methoxy-4-phenylquinazoline,C15H12N2O1,017629-09-3,COc1nc2ccccc2c(n1)c3ccccc3,"hansch,c & leo,aj (1985) ",3.5,15,12,2,1,0,0,0,0,0,0,,18,
"3-ethyl-4-methyl-1,2,5-oxadiazole",C5H8N2O1,017647-69-7,CCc1nonc1C,"calvino,r et al. (1992) ",1.18,5,8,2,1,0,0,0,0,0,0,,8,
"4-methyl-1,2,5-oxadiazol-3-amine",C3H5N3O1,017647-70-0,Cc1nonc1N,"calvino,r et al. (1992) ",0.09,3,5,3,1,0,0,0,0,0,0,,7,
propyl n-methylcarbamate,C5H11N1O2,017671-76-0,CCCOC(=O)NC,"hansch,c & leo,aj (1985) ",0.95,5,11,1,2,0,0,0,0,0,0,,8,
3-amino-1-methylurea,C2H7N3O1,017696-95-6,CNC(=O)NN,"hansch,c & leo,aj (1985) ",-2.2,2,7,3,1,0,0,0,0,0,0,,6,
"2,3,4-trichloronitrobenzene",C6H2Cl3N1O2,017700-09-3,[O-][N+](=O)c1ccc(Cl)c(Cl)c1Cl,"hansch,c et al. (1995) ",3.61,6,2,1,2,0,0,0,3,0,0,,12,
"2,6-dichloroacetanilide",C8H7Cl2N1O1,017700-54-8,CC(=O)Nc1c(Cl)cccc1Cl,"nakagawa,y et al. (1992) ",1.32,8,7,1,1,0,0,0,2,0,0,,12,
8-phenyl-7h-purin-6-amine,C11H9N5,017720-22-8,Nc1ncnc2nc([nH]c12)c3ccccc3,"hansch,c et al. (1995) ",2.31,11,9,5,0,0,0,0,0,0,0,,16,
"2,6-dimethyl-1-nitrosopiperidine",C7H14N2O1,017721-95-8,CC1CCCC(C)N1N=O,"hansch,c et al. (1995) ",1.36,7,14,2,1,0,0,0,0,0,0,,10,
4-(pyridin-3-ylmethyl)morpholine,C10H14N2O1,017751-47-2,C1CN(CCO1)Cc2cccnc2,"hansch,c et al. (1995) ",0.04,10,14,2,1,0,0,0,0,0,0,,13,
"2-methyl-4-oxo-n-phenyl-5,6-dihydro-1,4-oxathiine-3-carboxamide",C12H13N1O3S1,017757-70-9,CC1=C(C(=O)Nc2ccccc2)[S](=O)CCO1,sangster (1993) ,0.64,12,13,1,3,1,0,0,0,0,0,,17,
"7-hydroxy-2,2-dimethyl-1-benzofuran-3-one",C10H10O3,017781-16-7,CC1(C)Oc2c(O)cccc2C1=O,"hansch,c et al. (1995) ",1.87,10,10,0,3,0,0,0,0,0,0,,13,
n-[methoxy-(4-methoxyphenoxy)phosphoryl]methanamine,C9H14N1O4P1,017795-32-3,CN[P](=O)(OC)Oc1ccc(OC)cc1,"hansch,c et al. (1995) ",1.06,9,14,1,4,0,1,0,0,0,0,,15,
"2-cyclohexylsulfanylisoindole-1,3-dione",C14H15N1O2S1,017796-82-6,O=C1N(SC2CCCCC2)C(=O)c3ccccc13,hpv data ,3.66,14,15,1,2,1,0,0,0,0,0,,18,
methyl n-[1-(butylcarbamoyl)benzimidazol-2-yl]carbamate,C14H18N4O3,017804-35-2,CCCCNC(=O)n1c(NC(=O)OC)nc2ccccc12,"hansch,c et al. (1995) ",2.12,14,18,4,3,0,0,0,0,0,0,,21,
3-benzoylacrylic acid (trans),C10H8O3,017812-07-6,OC(=O)C=CC(=O)c1ccccc1,"hansch,c et al. (1995) ",1.53,10,8,0,3,0,0,0,0,0,0,,13,
2-[2-[2-(2-prop-2-enoyloxyethoxy)ethoxy]ethoxy]ethyl prop-2-enoate,C14H22O7,017831-71-9,C=CC(=O)OCCOCCOCCOCCOC(=O)C=C,sangster (1994) ,1.26,14,22,0,7,0,0,0,0,0,0,,21,
"benzenemethanol, 2-chloro-",C7H7Cl1O1,017849-38-6,OCc1ccccc1Cl,"miyake,f et al. (1987) ",1.77,7,7,0,1,0,0,0,1,0,0,,9,
"benzoic acid, 4-chloro-2-[(3-chlorophenyl)amino]",C13H9Cl2N1O2,017870-85-8,Clc1ccc(C(=O)O)c(Nc2cccc(Cl)c2)c1,sangster (1993) ,5,13,9,1,2,0,0,0,2,0,0,,18,
"2,2-dimethylpropanehydrazide",C5H12N2O1,017883-59-9,CC(C)(C)C(=O)NN,"hansch,c et al. (1995) ",-0.35,5,12,2,1,0,0,0,0,0,0,,8,
"5-fluoro-1-(oxolan-2-yl)pyrimidine-2,4-dione",C8H9F1N2O3,017902-23-7,FC1=CN(C2CCCO2)C(=O)NC1=O,"hansch,c et al. (1995) ",-0.27,8,9,2,3,0,0,1,0,0,0,,14,
4-pyridin-2-ylbutan-1-ol,C9H13N1O1,017945-79-8,OCCCCc1ccccn1,"hansch,c et al. (1995) ",0.86,9,13,1,1,0,0,0,0,0,0,,11,
4-prop-1-en-2-ylcyclohexene-1-carbaldehyde,C10H14O1,018031-40-8,CC(=C)C1CCC(=CC1)C=O,"griffin,s et al. (1999) ",3.13,10,14,0,1,0,0,0,0,0,0,,11,
fentiazac,C17H12Cl1N1O2S1,018046-21-4,OC(=O)Cc1sc(nc1c2ccc(Cl)cc2)c3ccccc3,"hansch,c et al. (1995) ",5.19,17,12,1,2,1,0,0,1,0,0,,22,
"2,6-difluorobenzamide",C7H5F2N1O1,018063-03-1,NC(=O)c1c(F)cccc1F,"nakagawa,y et al. (1992) ",0.25,7,5,1,1,0,0,2,0,0,0,,11,
"benzeneacetamide, n-(3-chlorophenyl)-",C14H12Cl1N1O1,018109-43-8,Clc1cccc(NC(=O)Cc2ccccc2)c1,"mitsutake,ki et al. (1986) ",3.61,14,12,1,1,0,0,0,1,0,0,,17,
"n-(3-diethylaminopropyl)-n-(2,6-dimethylphenyl)-2-phenylacetamide",C23H32N2O1,018109-55-2,CCN(CC)CCCN(C(=O)Cc1ccccc1)c2c(C)cccc2C,sangster (1993) ,4.94,23,32,2,1,0,0,0,0,0,0,,26,
"2,3-diethyl-5-methylpyrazine",C9H14N2,018138-04-0,CCc1ncc(C)nc1CC,"yamagami,c et al. (1991) ",1.95,9,14,2,0,0,0,0,0,0,0,,11,
iodofenphos,C8H8Cl2I1O3P1S1,018181-70-9,CO[P](=S)(OC)Oc1cc(Cl)c(I)cc1Cl,"debruijn,j et al. (1989) ",5.51,8,8,0,3,1,1,0,2,0,1,,16,
"propan-2-yl 2,2-bis(4-bromophenyl)-2-hydroxyacetate",C17H16Br2O3,018181-80-1,CC(C)OC(=O)C(O)(c1ccc(Br)cc1)c2ccc(Br)cc2,"tomlin,c (1997) ",5.4,17,16,0,3,0,0,0,0,2,0,,22,
"2,3,4,5,6-pcb",C12H5Cl5,018259-05-7,c1(c2ccccc2)c(Cl)c(Cl)c(Cl)c(Cl)c1Cl,"debruijn,j et al. (1989) ",6.75,12,5,0,0,0,0,0,5,0,0,,17,
(4-cyanophenyl) n-methylcarbamate,C9H8N2O2,018315-52-1,CNC(=O)Oc1ccc(cc1)C#N,"hansch,c et al. (1995) ",0.95,9,8,2,2,0,0,0,0,0,0,,13,
clindamycin,C18H33Cl1N2O5S1,018323-44-9,CCC[C@@H]1C[C@H](N(C)C1)C(=O)NC(C(C)Cl)[C@H]2O[C@H](SC)[C@H](O)[C@@H](O)[C@H]2O,"hansch,c et al. (1995) ",2.16,18,33,2,5,1,0,0,1,0,0,,27,
"2,6,7,8-tetrahydro-1h-pyrrolizine-3,5-dione",C7H9N1O2,018356-28-0,O=C1CCC2CCC(=O)N12,"altomare,c et al. (1995) ",-1.11,7,9,1,2,0,0,0,0,0,0,,10,
"2,6-dimethylheptane-3,5-dione",C9H16O2,018362-64-6,CC(C)C(=O)CC(=O)C(C)C,"hansch,c et al. (1995) ",2.22,9,16,0,2,0,0,0,0,0,0,,11,
"4,4-diethoxybutanenitrile",C8H15N1O2,018381-45-8,CCOC(CCC#N)OCC,pomona (1987) ,0.75,8,15,1,2,0,0,0,0,0,0,,11,
2-methylsulfanylpyridine,C6H7N1S1,018438-38-5,CSc1ccccn1,"yamagami,c et al. (1990a) ",1.71,6,7,1,0,1,0,0,0,0,0,,8,
"2-(1,3-thiazol-2-yl)ethanamine",C5H8N2S1,018453-07-1,NCCc1sccn1,"young,rc et al. (1993) ",0.16,5,8,2,0,1,0,0,0,0,0,,8,
49813-52-7,C12H18O7,018467-77-1,CC1(C)OCC2OC3(OC(C)(C)OC3C2O1)C(O)=O,"tomlin,c (1997) ",1.35,12,18,0,7,0,0,0,0,0,0,,19,
"1h-tetrazole, 5-(phenylmethyl)-",C8H8N4,018489-25-3,C(c1[nH]nnn1)c2ccccc2,pomona (1987) ,1.36,8,8,4,0,0,0,0,0,0,0,,12,
1-morpholin-4-yl-2-(phenoxy)ethanone,C12H15N1O3,018495-00-6,O=C(COc1ccccc1)N2CCOCC2,"hansch,c et al. (1995) ",0.74,12,15,1,3,0,0,0,0,0,0,,16,