Names,Formula,CAS No,SMILES,Reference,Exp logp,C,H,N,O,S,P,F,Cl,Br,I,,,
methoxymethyl 2-(carbamoylcarbamoyl)-2-ethylbutanoate,C10H18N2O5,073632-79-8,CCC(CC)(C(=O)NC(N)=O)C(=O)OCOC,sangster (1994) ,1,10,18,2,5,0,0,0,0,0,0,,17,
(2-methoxy-2-oxoethyl) 2-(carbamoylcarbamoyl)-2-ethylbutanoate,C11H18N2O6,073632-80-1,CCC(CC)(C(=O)NC(N)=O)C(=O)OCC(=O)OC,sangster (1994) ,0.99,11,18,2,6,0,0,0,0,0,0,,19,
4-amino-2-iodobenzoic acid,C7H6I1N1O2,073655-51-3,Nc1ccc(C(O)=O)c(I)c1,"hansch,c et al. (1995) ",1.65,7,6,1,2,0,0,0,0,0,1,,11,
methyl 2-(carbamothioylcarbamoyl)-2-ethylbutanoate,C9H16N2O3S1,073930-96-8,CCC(CC)(C(=O)NC(N)=S)C(=O)OC,sangster (1994) ,1.82,9,16,2,3,1,0,0,0,0,0,,15,
2-imidazol-1-yl-1-[4-(2-phenylethyl)phenyl]ethanol,C19H20N2O1,073931-96-1,OC(Cn1ccnc1)c2ccc(CCc3ccccc3)cc2,"hansch,c et al. (1995) ",3.4,19,20,2,1,0,0,0,0,0,0,,22,
6-chloro-3-methylbenzazepine,C11H14Cl1N1,not,CC1=CNc2cccc(Cl)c2C=C1,"hansch,c et al. (1995) ",2.92,11,14,1,0,0,0,0,1,0,0,,13,
ethyl quinoline-6-carboxylate,C12H11N1O2,073987-38-9,CCOC(=O)c1ccc2ncccc2c1,"hansch,c & leo,aj (1985) ",2.64,12,11,1,2,0,0,0,0,0,0,,15,
"1-ethyl-6-fluoro-4-oxo-7-piperazin-1-yl-1,8-naphthyridine-3-carboxylic acid",C15H17F1N4O3,074011-58-8,CCN1C=C(C(O)=O)C(=O)c2cc(F)c(nc12)N3CCNCC3,sangster (1994); ion-corrected ,-0.2,15,17,4,3,0,0,1,0,0,0,,23,
rokitamycin,C42H69N1O15,074014-51-0,CCCC(=O)O[C@H]1[C@H](C)O[C@H](C[C@@]1(C)OC(=O)CC)O[C@@H]2[C@@H](C)O[C@@H](O[C@H]3[C@@H](CC=O)C[C@@H](C)[C@@H](O)\C=C\C=C\C[C@@H](C)OC(=O)C[C@@H](O)[C@@H]3OC)[C@H](O)[C@H]2N(C)C,"hansch,c et al. (1995) ",3.08,42,69,1,15,0,0,0,0,0,0,,58,
"3-[2-[4-(4-fluorobenzoyl)piperidin-1-yl]ethyl]-1h-quinazoline-2,4-dione",C22H22F1N3O3,074050-98-9,Fc1ccc(cc1)C(=O)C2CCN(CC2)CCN3C(=O)Nc4ccccc4C3=O,biobyte (1995) ,3.29,22,22,3,3,0,0,1,0,0,0,,29,
aclonifen,C12H9Cl1N2O3,074070-46-5,Nc1c(Cl)c(Oc2ccccc2)ccc1[N+]([O-])=O,"nandihalli,ub et al. (1993) ",4.04,12,9,2,3,0,0,0,1,0,0,,18,
1-methoxy-1-methyl-3-[3-(phenylmethoxy)phenyl]urea,C16H18N2O3,074109-81-2,CON(C)C(=O)Nc1cccc(OCc2ccccc2)c1,"hansch,c & leo,aj (1985) ",3.11,16,18,2,3,0,0,0,0,0,0,,21,
clofentezine,C14H8Cl2N4,074115-24-5,Clc1ccccc1c2nnc(nn2)c3ccccc3Cl,"tomlin,c (1994) ",3.1,14,8,4,0,0,0,0,2,0,0,,20,
"n-(7-methyl-9,10,10-trioxothioxanthen-3-yl)acetamide",C16H13N1O4S1,074134-17-1,CC(=O)Nc1ccc2C(=O)c3cc(C)ccc3[S](=O)(=O)c2c1,sangster (1994) ,2.76,16,13,1,4,1,0,0,0,0,0,,22,
"n-(7-ethyl-9,10,10-trioxothioxanthen-3-yl)acetamide",C17H15N1O4S1,074134-18-2,CCc1ccc2c(c1)C(=O)c3ccc(NC(C)=O)cc3[S]2(=O)=O,"hansch,c et al. (1995) ",3.44,17,15,1,4,1,0,0,0,0,0,,23,
"n-(9,10,10-trioxo-7-propylthioxanthen-3-yl)acetamide",C18H17N1O4S1,074134-19-3,CCCc1ccc2c(c1)C(=O)c3ccc(NC(C)=O)cc3[S]2(=O)=O,pomona (1987) ,3.51,18,17,1,4,1,0,0,0,0,0,,24,
1-[2-(bis(2-hydroxyethyl)amino)-2-oxoethyl]-n-hydroxyimidazol-2-amine oxide,C9H14N4O5,074141-74-5,OCCN(CCO)C(=O)Cn1ccnc1[NH+](O)[O-],sangster (1993) ,-1.64,9,14,4,5,0,0,0,0,0,0,,18,
"erythromycylamine 11,12-carbonate",C38H68N2O13,074211-76-0,CCC1C(C(C(C(=NO)C(CC(C(C(C(C(C(=O)O1)C)OC2CC(C3(CO3)C(O2)C)(C)OC)C)OC4C(C(CC(O4)C)N(C)C)O)(C)O)C)C)O)(C)O,"mcfarland,jw et al. (1997) ",2.92,38,68,2,13,0,0,0,0,0,0,,53,
"methyl 2-[(4,6-dimethylpyrimidin-2-yl)carbamoylsulfamoyl]benzoate",C15H16N4O5S1,074222-97-2,COC(=O)c1ccccc1[S](=O)(=O)NC(=O)Nc2nc(C)cc(C)n2,"harvey,j jr et al. (1985) ",1.2,15,16,4,5,1,0,0,0,0,0,,25,
"methyl 2-[(4-methoxy-6-methyl-1,3,5-triazin-2-yl)carbamoylsulfamoyl]benzoate",C14H15N5O6S1,074223-64-6,COC(=O)c1ccccc1[S](=O)(=O)NC(=O)Nc2nc(C)nc(OC)n2,sangster (1994) ,2.2,14,15,5,6,1,0,0,0,0,0,,26,
"[2-(11,17-dihydroxy-10,13-dimethyl-3-oxo-2,6,7,8,9,11,12,14,15,16-decahydro-1h-cyclopenta[a]phenanthren-17-yl)-2-oxoethyl] 4-dimethylamino-4-oxobutanoate",C27H39N1O7,074253-50-2,CN(C)C(=O)CCC(=O)OCC(=O)C1(O)CCC2C3CCC4=CC(=O)CCC4(C)C3C(O)CC12C,"hansch,c & leo,aj (1985) ",2.03,27,39,1,7,0,0,0,0,0,0,,35,
3-amino-1-tert-butylurea,C5H13N3O1,074255-46-2,CC(C)(C)NC(=O)NN,"hansch,c & leo,aj (1985) ",-0.81,5,13,3,1,0,0,0,0,0,0,,9,
n-(n-di-me-n,C9H18N4O3S2,c9h18n4o3s2,CN(C)C(=O)N(C)SN(C)C(=O)ON=C(C)SC,cn(c)c(=o)n(c)sn(c)c(=o)on=c(c)sc,1.2,9,18,4,3,2,0,0,0,0,0,,18,
nndietnmeurylthiomethomyl,C11H22N4O3S2,074385-76-5,CC(=NOC(=O)N(C)SN(C)C(=O)N(CC)CC)SC,biobyte (1995) ,3.2,11,22,4,3,2,0,0,0,0,0,,20,
"ethanimidothioic acid, n-[(4-cyclopropyl-2,6-dim",C11H20N4O3S2,074385-86-7,CN(C)C(=O)N(SN(C)C(=O)ON=C(C)SC)C1CC1,sangster (1993) ,2,11,20,4,3,2,0,0,0,0,0,,20,
n-(n-di-me-n,C14H28N4O3S2,c14h28n4o3s2,CN(C)C(=O)N(CCCCCC)SN(C)C(=O)ON=C(C)SC,cn(c)c(=o)n(cccccc)sn(c)c(=o)on=c(c)sc,3.3,14,28,4,3,2,0,0,0,0,0,,23,
"2-propenoic acid, 3-(2-chlorophenoxy)-, ethyl es",C11H11Cl1O3,074407-83-3,CCOC(=O)C=COc1ccccc1Cl,sangster (1993) ,3.55,11,11,0,3,0,0,0,1,0,0,,15,
"benzamide, 4-[(diethylamino)methyl]-n-(2,6-dimet",C20H26N2O1,074433-34-4,CCN(Cc1ccc(C(=O)Nc2c(C)cccc2C)cc1)CC,pomona (1987) ,3.49,20,26,2,1,0,0,0,0,0,0,,23,
"2,2',3,4',5,6'-hexachlorobiphenyl",C12H4Cl6,074472-41-6,Clc1cc(Cl)c(c(Cl)c1)c2cc(Cl)cc(Cl)c2Cl,biobyte starlist (2009) ,6.87,12,4,0,0,0,0,0,6,0,0,,18,
"2,3,3',4,5',6-hexachlorobiphenyl",C12H4Cl6,074472-43-8,Clc1cc(Cl)cc(c1)c2c(Cl)cc(Cl)c(Cl)c2Cl,biobyte (1995) ,7.1,12,4,0,0,0,0,0,6,0,0,,18,
"2,3,3',4',5,6-hexachlorobiphenyl",C12H4Cl6,074472-44-9,Clc1ccc(cc1Cl)c2c(Cl)c(Cl)cc(Cl)c2Cl,biobyte (1995) ,7.2,12,4,0,0,0,0,0,6,0,0,,18,
"2,3,3',5,5',6-hexachlorobiphenyl",C12H4Cl6,074472-46-1,Clc1cc(Cl)cc(c1)c2c(Cl)c(Cl)cc(Cl)c2Cl,"hansch,c & leo,aj (1985) ",7.37,12,4,0,0,0,0,0,6,0,0,,18,
9-[3-(propan-2-ylamino)propyl]fluorene-9-carboxamide,C20H24N2O1,074517-78-5,CC(C)NCCCC1(C(N)=O)c2ccccc2c3ccccc13,"mannhold,r et al. (1990) ",3.11,20,24,2,1,0,0,0,0,0,0,,23,
"2,5-dibromobenzaldehyde",C7H4Br2O1,074553-29-0,Brc1ccc(Br)c(C=O)c1,"jin,lj et al. (1998) ",3.35,7,4,0,1,0,0,0,0,2,0,,10,
"n-(2,6-dimethylphenyl)-4-(piperidin-1-ylmethyl)benzamide",C21H26N2O1,074602-46-3,Cc1cccc(C)c1NC(=O)c2ccc(CN3CCCCC3)cc2,pomona (1987) ,3.86,21,26,2,1,0,0,0,0,0,0,,24,
"2-[[4-(2,3-dihydro-1,4-benzodioxin-7-yl)-1,3-thiazol-2-yl]amino]-2-oxoacetic acid",C13H10N2O5S1,074604-76-5,OC(=O)C(=O)Nc1scc(n1)c2ccc3OCCOc3c2,"pandit,nk et al. (1989) ",1.8,13,10,2,5,1,0,0,0,0,0,,21,
3-methyl-1-[2-[(3-methylimidazol-4-yl)methylsulfanyl]ethyl]thiourea,C9H16N4S2,074633-67-3,CNC(=S)NCCSCc1cncn1C,sangster (1993) ,0.32,9,16,4,0,2,0,0,0,0,0,,15,
cephalasporinanalog,C19H23N5O7S2,074708-80-8,CON=C(c3csc(N)n3)C(=O)NC1C2SCC=C(C(=O)OCOC(=O)C(C)(C)C)N2C1(=O),biobyte (1995) ,1.76,19,23,5,7,2,0,0,0,0,0,,33,
"4-[(2,4-diaminopyrimidin-5-yl)methyl]-2,6-dimethoxy-n,n-dimethylbenzamide",C16H21N5O3,074731-64-9,COc1cc(Cc2cnc(N)nc2N)cc(OC)c1C(=O)N(C)C,"hansch,c & leo,aj (1985) ",-0.21,16,21,5,3,0,0,0,0,0,0,,24,
"5-[(3,5-dimethoxy-4-propan-2-ylphenyl)methyl]pyrimidine-2,4-diamine",C16H22N4O2,074731-66-1,COc1cc(Cc2cnc(N)nc2N)cc(OC)c1C(C)C,"hansch,c & leo,aj (1985) ",3.37,16,22,4,2,0,0,0,0,0,0,,22,
fenpiclonil,C11H6Cl2N2,074738-17-3,Clc1cccc(c1Cl)c2c[nH]cc2C#N,"tomlin,c (1994) ",3.86,11,6,2,0,0,0,0,2,0,0,,15,
n-[4-(dimethylsulfamoyl)phenyl]-n-methylacetamide,C11H16N2O3S1,074746-42-2,CN(C)[S](=O)(=O)c1ccc(cc1)N(C)C(C)=O,pomona (1987) ,0.23,11,16,2,3,1,0,0,0,0,0,,17,
n-[4-(dimethylsulfamoyl)phenyl]-n-methylpropanamide,C12H18N2O3S1,074746-43-3,CCC(=O)N(C)c1ccc(cc1)[S](=O)(=O)N(C)C,"hansch,c & leo,aj (1985) ",0.71,12,18,2,3,1,0,0,0,0,0,,18,
n-[4-(dimethylsulfamoyl)phenyl]-n-methylheptanamide,C16H26N2O3S1,074746-44-4,CCCCCCC(=O)N(C)c1ccc(cc1)[S](=O)(=O)N(C)C,sangster (1994) ,2.61,16,26,2,3,1,0,0,0,0,0,,22,
"7-(dipropylamino)-5,6,7,8-tetrahydronaphthalen-2-ol",C16H25N1O1,074938-11-7,CCCN(CCC)C1CCc2ccc(O)cc2C1,biobyte starlist (2009) ,3.75,16,25,1,1,0,0,0,0,0,0,,18,
(4-diethylaminophenyl)methanol,C11H17N1O1,074974-49-5,CCN(CC)c1ccc(CO)cc1,"hansch,c & leo,aj (1985) ",2.29,11,17,1,1,0,0,0,0,0,0,,13,
2-[4-(cyclohexylmethoxy)-3-methoxyphenyl]acetic acid,C16H22O4,075221-43-1,COc1cc(CC(O)=O)ccc1OCC2CCCCC2,"hansch,c & leo,aj (1985) ",3.35,16,22,0,4,0,0,0,0,0,0,,20,
"7-[2,6-dimethyl-8-(2-methylbutanoyloxy)-1,2,6,7,8,8a-hexahydronaphthalen-1-yl]-3,5-dihydroxyheptanoic acid",C24H38O6,075225-51-3,CCC(C)C(=O)OC1CC(C)C=C2C=CC(C)C(CCC(O)CC(O)CC(O)=O)C12,biobyte (1995) ,4.04,24,38,0,6,0,0,0,0,0,0,,30,
"[8-[2-(4-hydroxy-6-oxooxan-2-yl)ethyl]-3,7-dimethyl-1,2,3,7,8,8a-hexahydronaphthalen-1-yl] 2-methylbutanoate",C24H36O5,075330-75-5,CCC(C)C(=O)OC1CC(C)C=C2C=CC(C)C(CCC3CC(O)CC(=O)O3)C12,"hansch,c et al. (1995) ",4.26,24,36,0,5,0,0,0,0,0,0,,29,
"1-ethyl-6,8-difluoro-7-(4-methylpiperazin-1-yl)-4-oxoquinoline-3-carboxylic acid",C17H19F2N3O3,075338-41-9,CCN1C=C(C(O)=O)C(=O)c2cc(F)c(N3CCN(C)CC3)c(F)c12,sangster (1994) ,0.3,17,19,3,3,0,0,2,0,0,0,,25,
(4-methylpiperazin-1-yl)-phenylmethanone,C12H16N2O1,075349-23-4,CN1CCN(CC1)C(=O)c2ccccc2,"hansch,c & leo,aj (1985) ",0.35,12,16,2,1,0,0,0,0,0,0,,15,
"2-oxido-3,4-bis(phenylmethyl)-1,2,5-oxadiazol-2-ium",C16H14N2O2,075389-00-3,[O-][n+]1onc(Cc2ccccc2)c1Cc3ccccc3,"calvino,r et al. (1992) ",3.65,16,14,2,2,0,0,0,0,0,0,,20,
moxonidine,C9H12Cl1N5O1,075438-57-2,COc1nc(C)nc(Cl)c1NC2=NCCN2,biobyte starlist (2009) ,0.9,9,12,5,1,0,0,0,1,0,0,,16,
1-(4-fluorophenyl)-2-imidazol-1-yl-1-(4-phenylphenyl)ethanol,C23H19F1N2O1,075459-14-2,OC(Cn1ccnc1)(c2ccc(F)cc2)c3ccc(cc3)c4ccccc4,sangster (1993) ,4.23,23,19,2,1,0,0,1,0,0,0,,27,
ethyl 2-(benzotriazol-2-yl)propanoate,C11H13N3O2,075584-51-9,CCOC(=O)C(C)n1nc2ccccc2n1,"sparatore,f et al. (1988) ",2.38,11,13,3,2,0,0,0,0,0,0,,16,
ethyl 2-(benzotriazol-1-yl)propanoate,C11H13N3O2,075584-60-0,CCOC(=O)C(C)n1nnc2ccccc12,"sparatore,f et al. (1988) ",1.87,11,13,3,2,0,0,0,0,0,0,,16,
3-cl-6-et pyridazinecarboxylate,C7H7Cl1N2O2,075680-92-1,Clc1ccc(C(=O)OCC)nn1,"hansch,c & leo,aj (1985) ",0.12,7,7,2,2,0,0,0,1,0,0,,12,
diclobutrazol isomers,C15H19Cl2N3O1,075736-33-3,C(n2ncnc2)(C(O)C(C)(C)C)Cc1ccc(Cl)cc1Cl,"baker,ea et al. (1992) ",3.8,15,19,3,1,0,0,0,2,0,0,,21,
2-amino-4-nitrosophenol,C6H6N2O2,075773-74-9,Nc1cc(ccc1O)N=O,"hansch,c et al. (1995) ",0.03,6,6,2,2,0,0,0,0,0,0,,10,
"n-(2,5-dimethylpyrrol-1-yl)-n',n'-diethylpyridazine-3,6-diamine",C14H21N5,075841-81-5,CCN(CC)c1ccc(Nn2c(C)ccc2C)nn1,"hansch,c et al. (1995) ",2.73,14,21,5,0,0,0,0,0,0,0,,19,
"n-(2,5-dimethylpyrrol-1-yl)-6-morpholin-4-ylpyridazin-3-amine",C14H19N5O1,075841-82-6,Cc1ccc(C)n1Nc2ccc(nn2)N3CCOCC3,"hansch,c et al. (1995) ",1.94,14,19,5,1,0,0,0,0,0,0,,20,
"n-(2,5-dimethylpyrrol-1-yl)-6-pyrrolidin-1-ylpyridazin-3-amine",C14H19N5,075841-89-3,Cc1ccc(C)n1Nc2ccc(nn2)N3CCCC3,biobyte (1995) ,2.45,14,19,5,0,0,0,0,0,0,0,,19,
"n-(2,5-dimethylpyrrol-1-yl)-6-piperidin-1-ylpyridazin-3-amine",C15H21N5,075841-90-6,Cc1ccc(C)n1Nc2ccc(nn2)N3CCCCC3,"hansch,c et al. (1995) ",3.13,15,21,5,0,0,0,0,0,0,0,,20,
"n-(2,5-dimethylpyrrol-1-yl)-6-(4-methylpiperazin-1-yl)pyridazin-3-amine",C15H22N6,075841-91-7,CN1CCN(CC1)c2ccc(Nn3c(C)ccc3C)nn2,sangster (1993) ,1.94,15,22,6,0,0,0,0,0,0,0,,21,
"n-(2,5-dimethylpyrrol-1-yl)-6-piperazin-1-ylpyridazin-3-amine",C14H20N6,075841-93-9,Cc1ccc(C)n1Nc2ccc(nn2)N3CCNCC3,"hansch,c et al. (1995) ",1.44,14,20,6,0,0,0,0,0,0,0,,20,
"2-[[6-[(2,5-dimethylpyrrol-1-yl)amino]pyridazin-3-yl]-(2-hydroxyethyl)amino]ethanol",C14H21N5O2,075841-94-0,Cc1ccc(C)n1Nc2ccc(nn2)N(CCO)CCO,"hansch,c et al. (1995) ",1.06,14,21,5,2,0,0,0,0,0,0,,21,
"1-[[6-[(2,5-dimethylpyrrol-1-yl)amino]pyridazin-3-yl]-(2-hydroxyethyl)amino]propan-2-ol",C15H23N5O2,075841-95-1,CC(O)CN(CCO)c1ccc(Nn2c(C)ccc2C)nn1,sangster (1993) ,1.3,15,23,5,2,0,0,0,0,0,0,,22,
"1-[[6-[(2,5-dimethylpyrrol-1-yl)amino]pyridazin-3-yl]-(2-hydroxypropyl)amino]propan-2-ol",C16H25N5O2,075841-97-3,CC(O)CN(CC(C)O)c1ccc(Nn2c(C)ccc2C)nn1,"hansch,c et al. (1995) ",1.55,16,25,5,2,0,0,0,0,0,0,,23,
"1-[6-[(2,5-dimethylpyrrol-1-yl)amino]pyridazin-3-yl]piperidin-4-ol",C15H21N5O1,075841-98-4,Cc1ccc(C)n1Nc2ccc(nn2)N3CCC(O)CC3,"hansch,c et al. (1995) ",1.7,15,21,5,1,0,0,0,0,0,0,,21,
"n-(2,5-dimethylpyrrol-1-yl)-n-methyl-6-morpholin-4-ylpyridazin-3-amine",C15H21N5O1,075841-99-5,CN(n1c(C)ccc1C)c2ccc(nn2)N3CCOCC3,"hansch,c et al. (1995) ",2.21,15,21,5,1,0,0,0,0,0,0,,21,
"n-(2,5-dimethylpyrrol-1-yl)-n',n'-bis(2-methoxyethyl)pyridazine-3,6-diamine",C16H25N5O2,075842-02-3,COCCN(CCOC)c1ccc(Nn2c(C)ccc2C)nn1,"hansch,c et al. (1995) ",2.06,16,25,5,2,0,0,0,0,0,0,,23,
"n-(2,5-dimethylpyrrol-1-yl)-n'-(2-methoxyethyl)-n'-methylpyridazine-3,6-diamine",C14H21N5O1,075842-04-5,COCCN(C)c1ccc(Nn2c(C)ccc2C)nn1,"hansch,c et al. (1995) ",2.16,14,21,5,1,0,0,0,0,0,0,,20,
"n'-(2,5-dimethylpyrrol-1-yl)-n,n-dimethylpyridazine-3,6-diamine",C12H17N5,075842-06-7,CN(C)c1ccc(Nn2c(C)ccc2C)nn1,sangster (1993) ,2.18,12,17,5,0,0,0,0,0,0,0,,17,
"n-(2,5-dimethylpyrrol-1-yl)-6-[4-(2-methoxyphenyl)piperazin-1-yl]pyridazin-3-amine",C21H26N6O1,075842-08-9,COc1ccccc1N2CCN(CC2)c3ccc(Nn4c(C)ccc4C)nn3,biobyte starlist (2009) ,3.61,21,26,6,1,0,0,0,0,0,0,,28,
1-[2-[(1-ethoxy-1-oxo-4-phenylbutan-2-yl)amino]propanoyl]pyrrolidine-2-carboxylic acid,C20H28N2O5,075847-73-3,CCOC(=O)C(CCc1ccccc1)NC(C)C(=O)N2CCCC2C(O)=O,"hansch,c et al. (1995) ",0.07,20,28,2,5,0,0,0,0,0,0,,27,
n-[4-(dimethylsulfamoyl)phenyl]-3-hydroxy-n-methylpropanamide,C12H18N2O4S1,075851-99-9,CN(C)[S](=O)(=O)c1ccc(cc1)N(C)C(=O)CCO,pomona (1987) ,-0.26,12,18,2,4,1,0,0,0,0,0,,19,
3-cyano-n-[4-(dimethylsulfamoyl)phenyl]-n-methylpropanamide,C13H17N3O3S1,075852-01-6,CN(C)[S](=O)(=O)c1ccc(cc1)N(C)C(=O)CCC#N,pomona (1987) ,-0.17,13,17,3,3,1,0,0,0,0,0,,20,
"propanamide, 3-(acetyloxy)-n-[4-[(dimethylamino)",C14H20N2O5S1,075852-03-8,CC(=O)OCCC(=O)N(C)c1ccc(S(=O)(=O)N(C)C)cc1,pomona (1987) ,0.26,14,20,2,5,1,0,0,0,0,0,,22,
"propanamide, n-[4-[(dimethylamino)sulfonyl]pheny",C13H17N3O3S2,075852-08-3,c1c(N(C)C(=O)CCSC(#N))ccc(S(=O)(=O)N(C)C)c1,pomona (1987) ,0.84,13,17,3,3,2,0,0,0,0,0,,21,
"butanoic acid, 4-[[4-[(dimethylamino)sulfonyl]ph",C15H22N2O5S1,075852-09-4,CCOC(=O)CCC(=O)N(C)c1cc(S(=O)(=O)N(C)C)ccc1,pomona (1987) ,0.84,15,22,2,5,1,0,0,0,0,0,,23,
n-[4-(dimethylsulfamoyl)phenyl]-n-methylbutanamide,C13H20N2O3S1,075852-14-1,CCCC(=O)N(C)c1ccc(cc1)[S](=O)(=O)N(C)C,"hansch,c & leo,aj (1985) ",1.19,13,20,2,3,1,0,0,0,0,0,,19,
"propanamide, n-[4-(dimethylamino)sulfonyl]phenyl",C15H24N2O4S1,075852-15-2,CCCOCCC(=O)N(C)c1ccc(S(=O)(=O)N(C)C)cc1,pomona (1987) ,1.26,15,24,2,4,1,0,0,0,0,0,,22,
n-[4-(dimethylsulfamoyl)phenyl]-n-methylpentanamide,C14H22N2O3S1,075852-17-4,CCCCC(=O)N(C)c1ccc(cc1)[S](=O)(=O)N(C)C,pomona (1987) ,1.63,14,22,2,3,1,0,0,0,0,0,,20,
n-[4-(dimethylsulfamoyl)phenyl]-n-methylhexanamide,C15H24N2O3S1,075852-19-6,CCCCCC(=O)N(C)c1ccc(cc1)[S](=O)(=O)N(C)C,pomona (1987) ,2.16,15,24,2,3,1,0,0,0,0,0,,21,
3-methyl-4-nitrosomorpholine,C5H10N2O2,075881-16-2,CC1COCCN1N=O,"hansch,c & leo,aj (1985) ",-0.03,5,10,2,2,0,0,0,0,0,0,,9,
"[2-(9-fluoro-11,17-dihydroxy-10,13,16-trimethyl-3-oxo-6,7,8,11,12,14,15,16-octahydrocyclopenta[a]phenanthren-17-yl)-2-oxoethyl] propanoate",C25H33F1O6,075883-07-7,CCC(=O)OCC(=O)C1(O)C(C)CC2C3CCC4=CC(=O)C=CC4(C)C3(F)C(O)CC12C,"hansch,c & leo,aj (1985) ",3.06,25,33,0,6,0,0,1,0,0,0,,32,
".beta.-dihydroartemisinin, ethyl(ether)",C17H28O5,075887-54-6,CCOC1OC2OC3(C)CCC4C(C)CCC(C1C)C24OO3,"ramu,k & baker,jk (1995) ",3.89,17,28,0,5,0,0,0,0,0,0,,22,
"carbonic acid, decahydro-3,6,9-trimethyl-3,12-ep",C22H28O7,075887-63-7,CC1C5C34OOC(C)(CC5)OC3OC(OC(=O)Oc2ccccc2)C(C)C4CC1,sangster (1993) ,4.41,22,28,0,7,0,0,0,0,0,0,,29,
"2-[4-(diethoxyphosphorylmethyl)phenyl]-1,3-benzothiazole",C18H20N1O3P1S1,075889-62-2,CCO[P](=O)(Cc1ccc(cc1)c2sc3ccccc3n2)OCC,sangster (1993) ,3.5,18,20,1,3,1,1,0,0,0,0,,24,
"1,3-diethyl-8-phenyl-7h-purine-2,6-dione",C15H16N4O2,075922-48-4,CCN1C(=O)N(CC)c2nc([nH]c2C1=O)c3ccccc3,"hansch,c et al. (1995) ",2.93,15,16,4,2,0,0,0,0,0,0,,21,
"3-methylpyrido[3,2-e]benzimidazol-2-amine",C11H10N4,not,Cn1c(N)nc2c1ccc3ncccc23,"hansch,c et al. (1995) ",1.46,11,10,4,0,0,0,0,0,0,0,,15,
"[8-[2-hydroxy-3-(propan-2-ylamino)propoxy]-3,4-dihydro-2h-quinolin-1-yl]-pyridin-3-ylmethanone",C21H27N3O3,076252-06-7,CC(C)NCC(O)COc1cccc2CCCN(C(=O)c3cccnc3)c12,"mannhold,r et al. (1990) ",1.63,21,27,3,3,0,0,0,0,0,0,,27,
"3-buten-2-one,4-(2-cf3-phenyl)-",C11H9F3O1,076293-37-3,CC(=O)C=Cc1ccccc1C(F)(F)F,"yamagami,c et al. (1998) ",3.14,11,9,0,1,0,0,3,0,0,0,,15,
2-(2-butan-2-ylphenoxy)acetic acid,C12H16O3,076343-98-1,CCC(C)c1ccccc1OCC(O)=O,"hansch,c et al. (1995) ",3.32,12,16,0,3,0,0,0,0,0,0,,15,
1-[2-[(1-hydroxy-1-oxo-4-phenylbutan-2-yl)amino]propanoyl]pyrrolidine-2-carboxylic acid,C18H24N2O5,076420-72-9,CC(NC(CCc1ccccc1)C(O)=O)C(=O)N2CCCC2C(O)=O,"hansch,c et al. (1995) ",-0.74,18,24,2,5,0,0,0,0,0,0,,25,
methylsulfanylmethyl 2-acetyloxybenzoate,C11H12O4S1,076432-30-9,CSCOC(=O)c1ccccc1OC(C)=O,"nielsen,nm & bundgaard,h (1989) ",1.94,11,12,0,4,1,0,0,0,0,0,,16,
methylsulfonylmethyl 2-acetyloxybenzoate,C11H12O6S1,076432-35-4,CC(=O)Oc1ccccc1C(=O)OC[S](C)(=O)=O,"nielsen,nm & bundgaard,h (1989) ",0.57,11,12,0,6,1,0,0,0,0,0,,18,
4-iodo-1-methyl-5-nitroimidazole,C4H4I1N3O2,076529-47-0,Cn1cnc(I)c1[N+]([O-])=O,"gupta,rp et al. (1985) ",1.29,4,4,3,2,0,0,0,0,0,1,,10,
"1h-imidazole, 4-iodo-5-nitro-",C3H2I1N3O2,076529-48-1,[O-][N+](=O)c1[nH]cnc1I,"gupta,rp et al. (1985) ",0.28,3,2,3,2,0,0,0,0,0,1,,9,
2-[(5-methylsulfanylfuran-2-yl)methylidene]propanedinitrile,C9H6N2O1S1,076542-53-5,CSc1oc(cc1)C=C(C#N)C#N,"balaz,s et al. (1985) ",2.45,9,6,2,1,1,0,0,0,0,0,,13,
"2-propenoic acid, 2-cyano-3-[5-(methylthio)-2-fu",C10H9N1O3S1,076542-54-6,COC(=O)C(=Cc1ccc(SC)o1)C(#N),sangster (1994) ,2.61,10,9,1,3,1,0,0,0,0,0,,15,
1-[6-amino-2-[(1-hydroxy-1-oxo-4-phenylbutan-2-yl)amino]hexanoyl]pyrrolidine-2-carboxylic acid,C21H31N3O5,083915-83-7,NCCCCC(NC(CCc1ccccc1)C(O)=O)C(=O)N2CCCC2C(O)=O,merck index (1996); ph 7 ,-1.01,21,31,3,5,0,0,0,0,0,0,,29,
quizalofop-p-ethyl,C19H17Cl1N2O4,100646-51-3,CCOC(=O)[C@@H](C)Oc1ccc(Oc2cnc3cc(Cl)ccc3n2)cc1,"hansch,c et al. (1995) ",4.28,19,17,2,4,0,0,0,1,0,0,,26,
"4-[(2,3-dimethylphenyl)methyl]-3h-imidazole",C12H14N2,076631-46-4,Cc1cccc(Cc2[nH]cnc2)c1C,biobyte starlist (2009) ,2.68,12,14,2,0,0,0,0,0,0,0,,14,
"1-(2-fluorophenyl)-1-(4-fluorophenyl)-2-(1,2,4-triazol-1-yl)ethanol",C16H13F2N3O1,076674-21-0,OC(Cn1cncn1)(c2ccc(F)cc2)c3ccccc3F,"patil,sg et al. (1988) ",2.29,16,13,3,1,0,0,2,0,0,0,,22,
paclobutrazol,C15H20Cl1N3O1,076738-62-0,CC(C)(C)[C@@H](O)C(Cc1ccc(Cl)cc1)n2cncn2.CC(C)(C)[C@H](O)C(Cc3ccc(Cl)cc3)n4cncn4,"baker,ea et al. (1992) ",3.2,15,20,3,1,0,0,0,1,0,0,,20,
"3-[[2-(diaminomethylideneamino)-1,3-thiazol-4-yl]methylsulfanyl]-n'-sulfamoylpropanimidamide",C8H15N7O2S3,076824-35-6,NC(N)=Nc1scc(CSCCC(N)=N[S](N)(=O)=O)n1,"islam,ms & narurkar,mm (1993) ",-0.64,8,15,7,2,3,0,0,0,0,0,,20,
"salicylanilide,2'-methyl-4'-chloro",C14H12Cl1N1O2,not,Clc1ccc(NC(=O)c2ccccc2O)c(C)c1,biobyte starlist (2009) ,5.18,14,12,1,2,0,0,0,1,0,0,,18,
5-f-2'-me-4'-cl salicyanilide,C14H11Cl1F1N1O2,077068-02-1,Cc1c(NC(=O)c2c(O)ccc(F)c2)ccc(Cl)c1,"terada,h et al. (1988) ",4.89,14,11,1,2,0,0,1,1,0,0,,19,
n-(4-bromo-2-methylphenyl)-5-fluoro-2-hydroxybenzamide,C14H11Br1F1N1O2,077068-04-3,Cc1cc(Br)ccc1NC(=O)c2cc(F)ccc2O,"terada,h et al. (1988) ",5.15,14,11,1,2,0,0,1,0,1,0,,19,
"3,4-dimethylpyrido[3,2-e]benzimidazol-2-amine",C12H12N4,not,Cn1c(N)nc2c3cccnc3cc(C)c12,"hansch,c et al. (1995) ",1.98,12,12,4,0,0,0,0,0,0,0,,16,
"phenylacetic acid,3-cl-4-phenyleto",C16H15Cl1O3,077269-58-0,Clc2cc(CC(=O)O)ccc2OCCc1ccccc1,"hansch,c et al. (1995) ",3.53,16,15,0,3,0,0,0,1,0,0,,20,
"phenylacetic acid,3-cl-4-phpro",C17H17Cl1O3,077269-59-1,c1ccc(CCCOc2c(Cl)cc(CC(=O)(O))cc2)cc1,"hansch,c et al. (1995) ",3.9,17,17,0,3,0,0,0,1,0,0,,21,
"1h-imidazo[4,5-b]pyridine, 2-(2,4-dimethoxypheny",C14H13N3O2,077303-19-6,COC1=CC(=C(C=C1)C2=NC3=C(N2)C=CC=N3)OC,pomona (1987) ,2.57,14,13,3,2,0,0,0,0,0,0,,19,
"2-pyridinamine, 4-(5-amino-1h-1,2,4-triazol-3-yl",C10H14N6,077314-58-0,CCCNC1=NC=CC(=C1)C2=NC(=NN2)N,"lipinski,ca et al. (1985) ",1.61,10,14,6,0,0,0,0,0,0,0,,16,
"ethanol, 2-[[4-(5-amino-1h-1,2,4-triazol-3-yl)-2",C9H12N6O1,077314-62-6,C1=CN=C(C=C1C2=NC(=NN2)N)NCCO,"lipinski,ca et al. (1985) ",0.24,9,12,6,1,0,0,0,0,0,0,,16,
"5-bromo-1,6-dimethyl-3-propoxypyrimidine-2,4-dione",C9H13Br1N2O3,077317-88-5,CCCON1C(=O)N(C)C(=C(Br)C1=O)C,"hansch,c & leo,aj (1985) ",0.72,9,13,2,3,0,0,0,0,1,0,,15,