Names,Formula,CAS No,SMILES,Reference,Exp logp,C,H,N,O,S,P,F,Cl,Br,I,,,
formaldehyde,C1H2O1,000050-00-0,C=O,"hansch,c et al. (1995) ",0.35,1,2,0,1,0,0,0,0,0,0,,2,90
"9-fluoro-11,17-dihydroxy-17-(2-hydroxyacetyl)-10,13,16-trimethyl-6,7,8,11,12,14,15,16-octahydrocyclopenta[a]phenanthren-3-one",C22H29F1O5,000378-44-9,CC1CC2C3CCC4=CC(=O)C=CC4(C)C3(F)C(O)CC2(C)C1(O)C(=O)CO,"hansch,c et al. (1995) ",1.94,22,29,0,5,0,0,1,0,0,0,,28,
"[2-(11,17-dihydroxy-10,13-dimethyl-3-oxo-2,6,7,8,9,11,12,14,15,16-decahydro-1h-cyclopenta[a]phenanthren-17-yl)-2-oxoethyl] acetate",C23H32O6,000050-03-3,CC(=O)OCC(=O)C1(O)CCC2C3CCC4=CC(=O)CCC4(C)C3C(O)CC12C,"hansch,c et al. (1995) ",2.19,23,32,0,6,0,0,0,0,0,0,,29,
"[2-(17-hydroxy-10,13-dimethyl-3,11-dioxo-1,2,6,7,8,9,12,14,15,16-decahydrocyclopenta[a]phenanthren-17-yl)-2-oxoethyl] acetate",C23H30O6,000050-04-4,CC(=O)OCC(=O)C1(O)CCC2C3CCC4=CC(=O)CCC4(C)C3C(=O)CC12C,"hansch,c et al. (1995) ",2.1,23,30,0,6,0,0,0,0,0,0,,29,
"5-ethyl-5-phenyl-1,3-diazinane-2,4,6-trione",C12H12N2O3,000050-06-6,CCC1(C(=O)NC(=O)NC1=O)c2ccccc2,"hansch,c et al. (1995) ",1.47,12,12,2,3,0,0,0,0,0,0,,17,
neuro_000014,C15H18N4O5,000050-07-7,COC12C(COC(N)=O)C3=C(N1CC4NC24)C(=O)C(=C(N)C3=O)C,"hansch,c et al. (1995) ",-0.4,15,18,4,5,0,0,0,0,0,0,,24,
"5,5-diethyl-1-methyl-1,3-diazinane-2,4,6-trione",C9H14N2O3,000050-11-3,CCC1(CC)C(=O)NC(=O)N(C)C1=O,"hansch,c et al. (1995) ",1.15,9,14,2,3,0,0,0,0,0,0,,14,
"5-ethyl-3-methyl-5-phenylimidazolidine-2,4-dione",C12H14N2O2,000050-12-4,CCC1(NC(=O)N(C)C1=O)c2ccccc2,sangster (1994) ,1.69,12,14,2,2,0,0,0,0,0,0,,16,
cyclophosphamide,C7H15Cl2N2O2P1,000050-18-0,ClCCN(CCCl)[P]1(=O)NCCCO1,"hansch,c et al. (1995) ",0.63,7,15,2,2,0,1,0,2,0,0,,14,
2-hydroxypropanoic acid,C3H6O3,000598-82-3,CC(O)C(O)=O,"hansch,c et al. (1995) ",-0.72,3,6,0,3,0,0,0,0,0,0,,6,
"11-hydroxy-17-(2-hydroxyacetyl)-10,13-dimethyl-1,2,6,7,8,9,11,12,14,15,16,17-dodecahydrocyclopenta[a]phenanthren-3-one",C21H30O4,000050-22-6,CC12CC(O)C3C(CCC4=CC(=O)CCC34C)C1CCC2C(=O)CO,"hansch,c et al. (1995) ",1.94,21,30,0,4,0,0,0,0,0,0,,25,
"11,17-dihydroxy-17-(2-hydroxyacetyl)-10,13-dimethyl-2,6,7,8,9,11,12,14,15,16-decahydro-1h-cyclopenta[a]phenanthren-3-one",C21H30O5,000050-23-7,CC12CCC(=O)C=C1CCC3C4CCC(O)(C(=O)CO)C4(C)CC(O)C23,"hansch,c et al. (1995) ",1.61,21,30,0,5,0,0,0,0,0,0,,26,
"11,17-dihydroxy-17-(2-hydroxyacetyl)-10,13-dimethyl-7,8,9,11,12,14,15,16-octahydro-6h-cyclopenta[a]phenanthren-3-one",C21H28O5,000050-24-8,CC12CC(O)C3C(CCC4=CC(=O)C=CC34C)C1CCC2(O)C(=O)CO,"hansch,c et al. (1995) ",1.62,21,28,0,5,0,0,0,0,0,0,,26,
"13-methyl-6,7,8,9,11,12,14,15,16,17-decahydrocyclopenta[a]phenanthrene-3,16,17-triol",C18H24O3,000050-27-1,CC12CCC3C(CCc4cc(O)ccc34)C1CC(O)C2O,"hansch,c et al. (1995) ",2.45,18,24,0,3,0,0,0,0,0,0,,21,
"13-methyl-6,7,8,9,11,12,14,15,16,17-decahydrocyclopenta[a]phenanthrene-3,17-diol",C18H24O2,000050-28-2,CC12CCC3C(CCc4cc(O)ccc34)C1CCC2O,"hansch,c et al. (1995) ",4.01,18,24,0,2,0,0,0,0,0,0,,20,
"p,p'-ddt",C14H9Cl5,000050-29-3,Clc1ccc(cc1)C(c2ccc(Cl)cc2)C(Cl)(Cl)Cl,"hansch,c et al. (1995) ",6.91,14,9,0,0,0,0,0,5,0,0,,19,
"2,6-dichlorobenzoic acid",C7H4Cl2O2,000050-30-6,OC(=O)c1c(Cl)cccc1Cl,"hansch,c et al. (1995) ",2.23,7,4,0,2,0,0,0,2,0,0,,11,
benzo[a]pyrene,C20H12,000050-32-8,c1ccc2c(c1)cc3ccc4cccc5ccc2c3c45,"de maagd,pg et al. (1998) ",6.13,20,12,0,0,0,0,0,0,0,0,,20,
"4-butyl-1,2-di(phenyl)pyrazolidine-3,5-dione",C19H20N2O2,000050-33-9,CCCCC1C(=O)N(N(C1=O)c2ccccc2)c3ccccc3,sangster (1994) ,3.16,19,20,2,2,0,0,0,0,0,0,,23,
"2-(2,6-dioxopiperidin-3-yl)isoindole-1,3-dione",C13H10N2O4,000050-35-1,O=C1CCC(N2C(=O)c3ccccc3C2=O)C(=O)N1,"hansch,c et al. (1995) ",0.33,13,10,2,4,0,0,0,0,0,0,,19,
methyl 3-(benzoyloxy)-8-methyl-8-azabicyclo[3.2.1]octane-2-carboxylate,C17H21N1O4,000050-36-2,COC(=O)C1C(CC2CCC1N2C)OC(=O)c3ccccc3,"hansch,c et al. (1995) ",2.3,17,21,1,4,0,0,0,0,0,0,,22,
lsd,C20H26N3O1,000050-37-3,CCN(CC)C(=O)[C@H]1CN(C)[C@@H]2Cc3c[nH]c4cccc(C2=C1)c34,"hansch,c et al. (1995) ",2.95,20,26,3,1,0,0,0,0,0,0,,24,
"3-(5,6-dihydrobenzo[b][1]benzazepin-11-yl)-n-methylpropan-1-amine",C18H22N2,000050-47-5,CNCCCC1=CC2=CC=CCC2Nc3ccccc13,"hansch,c et al. (1995) ",4.9,18,22,2,0,0,0,0,0,0,0,,20,
50-48-6,C20H23N1,000050-48-6,CN(C)CCC=C1c2ccccc2CCc3ccccc13,"hansch,c et al. (1995) ",4.92,20,23,1,0,0,0,0,0,0,0,,21,
"3-(5,6-dihydrobenzo[b][1]benzazepin-11-yl)-n,n-dimethylpropan-1-amine",C19H24N2,000050-49-7,CN(C)CCCC1=CC2=CC=CCC2Nc3ccccc13,"hansch,c et al. (1995) ",4.8,19,24,2,0,0,0,0,0,0,0,,21,
10-[2-(1-methylpiperidin-2-yl)ethyl]-2-methylsulfanylphenothiazine,C21H26N2S2,000050-52-2,CSc1ccc2Sc3ccccc3N(CCC4CCCCN4C)c2c1,"hansch,c et al. (1995) ",5.9,21,26,2,0,2,0,0,0,0,0,,25,
3-(2-aminoethyl)-1h-indol-5-ol,C10H12N2O1,000050-67-9,NCCc1c[nH]c2ccc(O)cc12,"hansch,c et al. (1995) ",0.21,10,12,2,1,0,0,0,0,0,0,,13,
"hexane-1,2,3,4,5,6-hexol",C6H14O6,000608-66-2,OCC(O)C(O)C(O)C(O)CO,"hansch,c et al. (1995) ",-3.1,6,14,0,6,0,0,0,0,0,0,,12,
"1,3-diazinane-2,4,5,6-tetrone",C4H2N2O4,000050-71-5,O=C1NC(=O)C(=O)C(=O)N1,biobyte (1995) ,-1.84,4,2,2,4,0,0,0,0,0,0,,10,
2-acetyloxybenzoic acid,C9H8O4,000050-78-2,CC(=O)Oc1ccccc1C(O)=O,"hansch,c et al. (1995) ",1.19,9,8,0,4,0,0,0,0,0,0,,13,
"2,5-dichlorobenzoic acid",C7H4Cl2O2,000050-79-3,OC(=O)c1cc(Cl)ccc1Cl,"da,yz et al. (1992) ",2.82,7,4,0,2,0,0,0,2,0,0,,11,
2-hydroxy-4-methylbenzoic acid,C8H8O3,000050-85-1,Cc1ccc(C(O)=O)c(O)c1,"hansch,c et al. (1995) ",2.99,8,8,0,3,0,0,0,0,0,0,,11,
4-acetamido-2-hydroxybenzoic acid,C9H9N1O4,000050-86-2,CC(=O)Nc1ccc(C(O)=O)c(O)c1,"laznicek,m et al. (1987) ",1.62,9,9,1,4,0,0,0,0,0,0,,14,
"1-[4-hydroxy-5-(hydroxymethyl)oxolan-2-yl]-5-methylpyrimidine-2,4-dione",C10H14N2O5,000050-89-5,CC1=CN(C2CC(O)C(CO)O2)C(=O)NC1=O,sangster (1993) ,-0.93,10,14,2,5,0,0,0,0,0,0,,17,
"5-fluoro-1-[4-hydroxy-5-(hydroxymethyl)oxolan-2-yl]pyrimidine-2,4-dione",C9H11F1N2O5,000050-91-9,OCC1OC(CC1O)N2C=C(F)C(=O)NC2=O,"hansch,c et al. (1995) ",-1.16,9,11,2,5,0,0,1,0,0,0,,17,
2-methylamino-1-phenylpropan-1-ol,C10H15N1O1,000299-42-3,CNC(C)C(O)c1ccccc1,"avdeef,a (1997) ",1.13,10,15,1,1,0,0,0,0,0,0,,12,
4-amino-n-(2-diethylaminoethyl)benzamide,C13H21N3O1,000051-06-9,CCN(CC)CCNC(=O)c1ccc(N)cc1,"hansch,c et al. (1995) ",0.88,13,21,3,1,0,0,0,0,0,0,,17,
n-(phenylmethyl)-3-(2-(pyridine-4-carbonyl)hydrazinyl)propanamide,C16H18N4O2,000051-12-7,O=C(CCNNC(=O)c1ccncc1)NCc2ccccc2,"hansch,c et al. (1995) ",0.87,16,18,4,2,0,0,0,0,0,0,,22,
1h-benzimidazole,C7H6N2,000051-17-2,[nH]1cnc2ccccc12,"hansch,c et al. (1995) ",1.32,7,6,2,0,0,0,0,0,0,0,,9,
"2,4-dinitrophenol",C6H4N2O5,000051-28-5,Oc1ccc(cc1[N+]([O-])=O)[N+]([O-])=O,"hansch,c et al. (1995) ",1.67,6,4,2,5,0,0,0,0,0,0,,13,
64069-63-2,C17H21N1O4,000051-34-3,CN1C2CC(CC1C3OC23)OC(=O)C(CO)c4ccccc4,sangster (1994) ,0.98,17,21,1,4,0,0,0,0,0,0,,22,
"3,5-dichlorobenzoic acid",C7H4Cl2O2,000051-36-5,OC(=O)c1cc(Cl)cc(Cl)c1,"hansch,c et al. (1995) ",3,7,4,0,2,0,0,0,2,0,0,,11,
"4-(2-amino-1-hydroxy-ethyl)benzene-1,2-diol",C8H11N1O3,000051-41-2,NCC(O)c1ccc(O)c(O)c1,"hansch,c et al. (1995) ",-1.24,8,11,1,3,0,0,0,0,0,0,,12,
"4-(1-hydroxy-2-methylaminoethyl)benzene-1,2-diol",C9H13N1O3,000051-43-4,CNCC(O)c1ccc(O)c(O)c1,biobyte (2009) ,-1.2,9,13,1,3,0,0,0,0,0,0,,13,
"3,4-dichlorobenzoic acid",C7H4Cl2O2,000051-44-5,OC(=O)c1ccc(Cl)c(Cl)c1,"da,yz et al. (1992) ",3.25,7,4,0,2,0,0,0,2,0,0,,11,
2-(3h-imidazol-4-yl)ethanamine,C5H9N3,000051-45-6,NCCc1[nH]cnc1,sangster (1993) ,-0.7,5,9,3,0,0,0,0,0,0,0,,8,
(8-methyl-8-azabicyclo[3.2.1]octan-3-yl) 3-hydroxy-2-phenylpropanoate,C17H23N1O3,000051-55-8,CN1C2CCC1CC(C2)OC(=O)C(CO)c3ccccc3,"hansch,c et al. (1995) ",1.83,17,23,1,3,0,0,0,0,0,0,,21,
"4-(2-aminoethyl)benzene-1,2-diol",C8H11N1O2,000051-61-6,NCCc1ccc(O)c(O)c1,"hansch,c et al. (1995) ",-0.98,8,11,1,2,0,0,0,0,0,0,,11,
1-phenylpropan-2-amine,C9H13N1,000300-62-9,CC(N)Cc1ccccc1,"hansch,c et al. (1995) ",1.76,9,13,1,0,0,0,0,0,0,0,,10,
n-(4-methoxyphenyl)acetamide,C9H11N1O2,000051-66-1,COc1ccc(NC(C)=O)cc1,"hansch,c et al. (1995) ",1.03,9,11,1,2,0,0,0,0,0,0,,12,
mechlorethamine,C5H11Cl2N1,000051-75-2,CN(CCCl)CCCl,"selassie,cd et al. (1990) ",0.91,5,11,1,0,0,0,0,2,0,0,,8,
ethyl carbamate,C3H7N1O2,000051-79-6,CCOC(N)=O,"hansch,c et al. (1995) ",-0.15,3,7,1,2,0,0,0,0,0,0,,6,
"s-(10,13-dimethyl-3,5'-dioxospiro[2,6,7,8,9,11,12,14,15,16-decahydro-1h-cyclopenta[a]phenanthrene-17,2'-oxolane]-7-yl) ethanethioate",C24H32O4S1,033784-05-3,CC(=O)SC1CC2=CC(=O)CCC2(C)C3CCC4(C)C(CCC45CCC(=O)O5)C13,"hansch,c & leo,aj (1985) ",2.26,24,32,0,4,1,0,0,0,0,0,,29,
"[2-(11,17-dihydroxy-10,13-dimethyl-3-oxo-7,8,9,11,12,14,15,16-octahydro-6h-cyclopenta[a]phenanthren-17-yl)-2-oxoethyl] acetate",C23H30O6,000052-21-1,CC(=O)OCC(=O)C1(O)CCC2C3CCC4=CC(=O)C=CC4(C)C3C(O)CC12C,"hansch,c et al. (1995) ",2.4,23,30,0,6,0,0,0,0,0,0,,29,
tris(aziridin-1-yl)-sulfanylidenephosphorane,C6H12N3P1S1,000052-24-4,S=[P](N1CC1)(N2CC2)N3CC3,"hansch,c et al. (1995) ",0.53,6,12,3,0,1,1,0,0,0,0,,11,
oprea1_828621,C18H22N1O3,000076-57-3,COc1ccc2CC3C4C=CC(O)C5Oc1c2C45CCN3C,"avdeef,a et al. (1996) ",1.19,18,22,1,3,0,0,0,0,0,0,,22,
"5-(1-cyclohexenyl)-5-ethyl-1,3-diazinane-2,4,6-trione",C12H16N2O3,000052-31-3,CCC1(C(=O)NC(=O)NC1=O)C2=CCCCC2,"hansch,c et al. (1995) ",1.77,12,16,2,3,0,0,0,0,0,0,,17,
"5,5-di(prop-2-enyl)-1,3-diazinane-2,4,6-trione",C10H12N2O3,000052-43-7,C=CCC1(CC=C)C(=O)NC(=O)NC1=O,"hansch,c et al. (1995) ",1.15,10,12,2,3,0,0,0,0,0,0,,15,
"8,10-diazaspiro[5.5]undecane-7,9,11-trione",C9H12N2O3,000052-44-8,O=C1NC(=O)C2(CCCCC2)C(=O)N1,"prankerd,rj & mckeown,rh (1992) ",0.91,9,12,2,3,0,0,0,0,0,0,,14,
"9-sulfanylidene-8,10-diazaspiro[5.5]undecane-7,11-dione",C9H12N2O2S1,000052-45-9,O=C1NC(=S)NC(=O)C12CCCCC2,"prankerd,rj & mckeown,rh (1992) ",1.78,9,12,2,2,1,0,0,0,0,0,,14,
1-aminocyclopentane-1-carboxylic acid,C6H11N1O2,000052-52-8,NC1(CCCC1)C(O)=O,"tsai,rs et al. (1991) ",-2.28,6,11,1,2,0,0,0,0,0,0,,9,
"2-(3,4-dimethoxyphenyl)-5-[2-(3,4-dimethoxyphenyl)ethyl-methylamino]-2-propan-2-ylpentanenitrile",C27H38N2O4,000052-53-9,COc1ccc(CCN(C)CCCC(C#N)(C(C)C)c2ccc(OC)c(OC)c2)cc1OC,"hansch,c et al. (1995) ",3.79,27,38,2,4,0,0,0,0,0,0,,33,
2-amino-3-methyl-3-sulfanylbutanoic acid,C5H11N1O2S1,000052-67-5,CC(C)(S)C(N)C(O)=O,"hansch,c et al. (1995) ",-1.78,5,11,1,2,1,0,0,0,0,0,,9,
trichlorfon,C4H8Cl3O4P1,000052-68-6,CO[P](=O)(OC)C(O)C(Cl)(Cl)Cl,"hansch,c et al. (1995) ",0.51,4,8,0,4,0,1,0,3,0,0,,12,
"4-dimethoxyphosphinothioyloxy-n,n-dimethylbenzenesulfonamide",C10H16N1O5P1S2,000052-85-7,CO[P](=S)(OC)Oc1ccc(cc1)[S](=O)(=O)N(C)C,"hansch,c et al. (1995) ",2.23,10,16,1,5,2,1,0,0,0,0,,19,
haloperidol,C21H23Cl1F1N1O2,000052-86-8,OC1(CCN(CCCC(=O)c2ccc(F)cc2)CC1)c3ccc(Cl)cc3,"el tayar,n et al. (1985) ",4.3,21,23,1,2,0,0,1,1,0,0,,26,
2-amino-3-sulfanylpropanoic acid,C3H7N1O2S1,000052-90-4,NC(CS)C(O)=O,"hansch,c et al. (1995) ",-2.49,3,7,1,2,1,0,0,0,0,0,,7,
"17-hydroxy-17-(2-hydroxyacetyl)-10,13-dimethyl-6,7,8,9,12,14,15,16-octahydrocyclopenta[a]phenanthrene-3,11-dione",C21H26O5,000053-03-2,CC12CC(=O)C3C(CCC4=CC(=O)C=CC34C)C1CCC2(O)C(=O)CO,"hansch,c et al. (1995) ",1.46,21,26,0,5,0,0,0,0,0,0,,26,
"17-hydroxy-17-(2-hydroxyacetyl)-10,13-dimethyl-1,2,6,7,8,9,12,14,15,16-decahydrocyclopenta[a]phenanthrene-3,11-dione",C21H28O5,000053-06-5,CC12CCC(=O)C=C1CCC3C4CCC(O)(C(=O)CO)C4(C)CC(=O)C23,"hansch,c et al. (1995) ",1.47,21,28,0,5,0,0,0,0,0,0,,26,
"3-hydroxy-13-methyl-7,8,9,11,12,14,15,16-octahydro-6h-cyclopenta[a]phenanthren-17-one",C18H22O2,000053-16-7,CC12CCC3C(CCc4cc(O)ccc34)C1CCC2=O,"hansch,c et al. (1995) ",3.13,18,22,0,2,0,0,0,0,0,0,,20,
"3-hydroxy-10,13-dimethyl-1,2,3,4,5,6,7,8,9,11,12,14,15,16-tetradecahydrocyclopenta[a]phenanthren-17-one",C19H30O2,000053-41-8,CC12CCC(O)CC1CCC3C2CCC4(C)C3CCC4=O,"hansch,c et al. (1995) ",3.69,19,30,0,2,0,0,0,0,0,0,,21,
"3-hydroxy-10,13-dimethyl-1,2,3,4,7,8,9,11,12,14,15,16-dodecahydrocyclopenta[a]phenanthren-17-one",C19H28O2,000053-43-0,CC12CCC3C(CC=C4CC(O)CCC34C)C1CCC2=O,"hansch,c et al. (1995) ",3.23,19,28,0,2,0,0,0,0,0,0,,21,
"n,n-dimethyl-3-phenothiazin-10-ylpropan-1-amine",C17H20N2S1,000058-40-2,CN(C)CCCN1c2ccccc2Sc3ccccc13,"hansch,c et al. (1995) ",4.55,17,20,2,0,1,0,0,0,0,0,,20,
"naphtho[1,2-b]phenanthrene",C22H14,000224-41-9,c1ccc2c(c1)ccc3cc4c(ccc5ccccc45)cc23,"helweg,c et al. (1997a) ",6.54,22,14,0,0,0,0,0,0,0,0,,22,
2-amino-n-[5-(6-dimethylaminopurin-9-yl)-4-hydroxy-2-(hydroxymethyl)oxolan-3-yl]-3-(4-methoxyphenyl)propanamide,C22H29N7O5,000053-79-2,COc1ccc(CC(N)C(=O)NC2C(O)C(OC2CO)n3cnc4c(ncnc34)N(C)C)cc1,"hansch,c et al. (1995) ",0.03,22,29,7,5,0,0,0,0,0,0,,34,
indomethacin,C19H16Cl1N1O4,000053-86-1,COc1ccc2n(c(C)c(CC(O)=O)c2c1)C(=O)c3ccc(Cl)cc3,"hansch,c et al. (1995) ",4.27,19,16,1,4,0,0,0,1,0,0,,25,
"2-(3,4,5-trimethoxyphenyl)ethanamine",C11H17N1O3,000054-04-6,COc1cc(CCN)cc(OC)c1OC,"hansch,c et al. (1995) ",0.78,11,17,1,3,0,0,0,0,0,0,,15,
chloroquine,C18H26Cl1N3,000054-05-7,CCN(CC)CCCC(C)Nc1ccnc2cc(Cl)ccc12,"hansch,c et al. (1995) ",4.63,18,26,3,0,0,0,0,1,0,0,,22,
3-(1-methylpyrrolidin-2-yl)pyridine,C10H14N2,000054-11-5,CN1CCCC1c2cccnc2,"hansch,c et al. (1995) ",1.17,10,14,2,0,0,0,0,0,0,0,,12,
2-amino-3-(1h-indol-3-yl)propanoic acid,C11H12N2O2,000073-22-3,NC(Cc1c[nH]c2ccccc12)C(O)=O,"hansch,c et al. (1995) ",-1.06,11,12,2,2,0,0,0,0,0,0,,15,
2-hydroxybenzoic acid,C7H6O3,000069-72-7,OC(=O)c1ccccc1O,"hansch,c et al. (1995) ",2.26,7,6,0,3,0,0,0,0,0,0,,10,
"2-[3,4-dihydroxy-5-(hydroxymethyl)oxolan-2-yl]-1,2,4-triazine-3,5-dione",C8H11N3O6,000054-25-1,OCC1OC(C(O)C1O)N2N=CC(=O)NC2=O,"hansch,c et al. (1995) ",-2.14,8,11,3,6,0,0,0,0,0,0,,17,
furosemide,C12H11Cl1N2O5S1,000054-31-9,N[S](=O)(=O)c1cc(C(O)=O)c(NCc2occc2)cc1Cl,sangster (1993) ,2.03,12,11,2,5,1,0,0,1,0,0,,21,
[4-(2-dimethylaminoethoxy)-2-methyl-5-propan-2-ylphenyl] acetate,C16H25N1O3,000054-32-0,CC(C)c1cc(OC(C)=O)c(C)cc1OCCN(C)C,"dallet,p et al. (1985) ",3.17,16,25,1,3,0,0,0,0,0,0,,20,
"1-[4-hydroxy-5-(hydroxymethyl)oxolan-2-yl]-5-iodopyrimidine-2,4-dione",C9H11I1N2O5,000054-42-2,OCC1OC(CC1O)N2C=C(I)C(=O)NC2=O,"narurkar,mm & mitra,ak (1988) ",-0.96,9,11,2,5,0,0,0,0,0,1,,17,
3-(2-amino-1-hydroxypropyl)phenol,C9H13N1O2,000054-49-9,CC(N)C(O)c1cccc(O)c1,"hansch,c et al. (1995); ion-corrected ",-0.27,9,13,1,2,0,0,0,0,0,0,,12,
1-naphthalen-2-yl-2-(propan-2-ylamino)ethanol,C15H19N1O1,000054-80-8,CC(C)NCC(O)c1ccc2ccccc2c1,sangster (1993) ,3,15,19,1,1,0,0,0,0,0,0,,17,
pyridine-4-carbohydrazide,C6H7N3O1,000054-85-3,NNC(=O)c1ccncc1,"hansch,c et al. (1995) ",-0.7,6,7,3,1,0,0,0,0,0,0,,10,
3-bromo-1-[4-(3-bromopropanoyl)piperazin-1-yl]propan-1-one,C10H16Br2N2O2,000054-91-1,BrCCC(=O)N1CCN(CC1)C(=O)CCBr,"hansch,c et al. (1995) ",0.42,10,16,2,2,0,0,0,0,2,0,,16,
n'-propan-2-ylpyridine-4-carbohydrazide,C9H13N3O1,000054-92-2,CC(C)NNC(=O)c1ccncc1,"hansch,c et al. (1995) ",0.37,9,13,3,1,0,0,0,0,0,0,,13,
"6,7,8,9-tetrahydro-5h-tetrazolo[1,5-a]azepine",C6H10N4,000054-95-5,C1CCn2nnnc2CC1,"hansch,c et al. (1995) ",0.14,6,10,4,0,0,0,0,0,0,0,,10,
"n,n-diethylnitrous amide",C4H10N2O1,000055-18-5,CCN(CC)N=O,"hansch,c et al. (1995) ",0.48,4,10,2,1,0,0,0,0,0,0,,7,
benzamide,C7H7N1O1,000055-21-0,NC(=O)c1ccccc1,"hansch,c et al. (1995) ",0.64,7,7,1,1,0,0,0,0,0,0,,9,
pyridine-4-carboxylic acid,C6H5N1O2,000055-22-1,OC(=O)c1ccncc1,"hansch,c et al. (1995) ",0.32,6,5,1,2,0,0,0,0,0,0,,9,
dimethoxy-(3-methyl-4-methylsulfanylphenoxy)-sulfanylidenephosphorane,C10H15O3P1S2,000055-38-9,CO[P](=S)(OC)Oc1ccc(SC)c(C)c1,"hansch,c et al. (1995) ",4.09,10,15,0,3,2,1,0,0,0,0,,16,
chlorhexidine,C22H30Cl2N10,000055-56-1,NC(Nc1ccc(Cl)cc1)=NC(N)=NCCCCCCN=C(N)N=C(N)Nc2ccc(Cl)cc2,"hansch,c et al. (1995); ionized ph 5 ",0.08,22,30,10,0,0,0,0,2,0,0,,34,
"1,3-dinitrooxypropan-2-yl nitrate",C3H5N3O9,000055-63-0,[O-][N+](=O)OCC(CO[N+]([O-])=O)O[N+]([O-])=O,"hansch,c et al. (1995) ",1.62,3,5,3,9,0,0,0,0,0,0,,15,
2-(fluoro-propan-2-yloxyphosphoryl)oxypropane,C6H14F1O3P1,000055-91-4,CC(C)O[P](F)(=O)OC(C)C,"czerwinski,se et al. (1998) ",1.17,6,14,0,3,0,1,1,0,0,0,,11,
4-methylsulfonyloxybutyl methanesulfonate,C6H14O6S2,000055-98-1,C[S](=O)(=O)OCCCCO[S](C)(=O)=O,"hansch,c et al. (1995) ",-0.52,6,14,0,6,2,0,0,0,0,0,,14,
4-aminobutanoic acid,C4H9N1O2,000056-12-2,NCCCC(O)=O,"hansch,c et al. (1995) ",-3.17,4,9,1,2,0,0,0,0,0,0,,7,
carbon tetrachloride,C1Cl4,000056-23-5,ClC(Cl)(Cl)Cl,"hansch,c et al. (1995) ",2.83,1,0,0,0,0,0,0,4,0,0,,5,
diethoxy-(4-nitrophenoxy)-sulfanylidenephosphorane,C10H14N1O5P1S1,000056-38-2,CCO[P](=S)(OCC)Oc1ccc(cc1)[N+]([O-])=O,"hansch,c et al. (1995) ",3.83,10,14,1,5,1,1,0,0,0,0,,18,
2-aminoacetic acid,C2H5N1O2,000056-40-6,NCC(O)=O,"hansch,c et al. (1995) ",-3.21,2,5,1,2,0,0,0,0,0,0,,5,
2-aminopropanoic acid,C3H7N1O2,000302-72-7,CC(N)C(O)=O,"hansch,c et al. (1995) ",-2.96,3,7,1,2,0,0,0,0,0,0,,6,
2-amino-3-hydroxypropanoic acid,C3H7N1O3,000056-45-1,NC(CO)C(O)=O,"hansch,c et al. (1995) ",-3.07,3,7,1,3,0,0,0,0,0,0,,7,
"[2-(10,13-dimethyl-3-oxo-1,2,6,7,8,9,11,12,14,15,16,17-dodecahydrocyclopenta[a]phenanthren-17-yl)-2-oxoethyl] acetate",C23H32O4,000056-47-3,CC(=O)OCC(=O)C1CCC2C3CCC4=CC(=O)CCC4(C)C3CCC12C,"hansch,c et al. (1995) ",3.08,23,32,0,4,0,0,0,0,0,0,,27,
des,C18H20O2,000056-53-1,CC\C(c1ccc(O)cc1)=C(\CC)c2ccc(O)cc2,"hansch,c et al. (1995) ",5.07,18,20,0,2,0,0,0,0,0,0,,20,
(5-ethenyl-1-azabicyclo[2.2.2]octan-7-yl)-(6-methoxyquinolin-4-yl)methanol,C20H24N2O2,000130-95-0,COc1ccc2nccc(C(O)C3CC4CCN3CC4C=C)c2c1,"hansch,c et al. (1995) ",3.44,20,24,2,2,0,0,0,0,0,0,,24,
benzo[a]anthracene,C18H12,000056-55-3,c1ccc2cc3c(ccc4ccccc34)cc2c1,"wang,l et al. (1986) ",5.76,18,12,0,0,0,0,0,0,0,0,,18,
coumaphos,C14H16Cl1O5P1S1,000056-72-4,CCO[P](=S)(OCC)Oc1ccc2C(=C(Cl)C(=O)Oc2c1)C,"tomlin,c (1994) ",4.13,14,16,0,5,1,1,0,1,0,0,,22,
chloramphenicol,C11H12Cl2N2O5,000056-75-7,OCC(NC(=O)C(Cl)Cl)C(O)c1ccc(cc1)[N+]([O-])=O,"hansch,c et al. (1995) ",1.14,11,12,2,5,0,0,0,2,0,0,,20,
"propane-1,2,3-triol",C3H8O3,000056-81-5,OCC(O)CO,"hansch,c et al. (1995) ",-1.76,3,8,0,3,0,0,0,0,0,0,,6,
2-aminobutanedioic acid,C4H7N1O4,000056-84-8,NC(CC(O)=O)C(O)=O,"chmelik,j et al. (1991) ",-3.89,4,7,1,4,0,0,0,0,0,0,,9,
"2,5-diamino-5-oxopentanoic acid",C5H10N2O3,000056-85-9,NC(CCC(N)=O)C(O)=O,"chmelik,j et al. (1991) ",-3.64,5,10,2,3,0,0,0,0,0,0,,10,
2-aminopentanedioic acid,C5H9N1O4,000056-86-0,NC(CCC(O)=O)C(O)=O,"hansch,c et al. (1995) ",-3.69,5,9,1,4,0,0,0,0,0,0,,10,
"2,6-diaminohexanoic acid",C6H14N2O2,000056-87-1,NCCCCC(N)C(O)=O,"hansch,c et al. (1995) ",-3.05,6,14,2,2,0,0,0,0,0,0,,10,
2-amino-3-(2-amino-3-hydroxy-3-oxopropyl)disulfanylpropanoic acid,C6H12N2O4S2,000056-89-3,NC(CSSCC(N)C(O)=O)C(O)=O,"chmelik,j et al. (1991) ",-5.08,6,12,2,4,2,0,0,0,0,0,,14,
4-(aminomethyl)benzoic acid,C8H9N1O2,000056-91-7,NCc1ccc(cc1)C(O)=O,"da,yz et al. (1992) ",1.03,8,9,1,2,0,0,0,0,0,0,,11,
hexadecanoic acid,C16H32O2,000057-10-3,CCCCCCCCCCCCCCCC(O)=O,sangster (1993) ,7.17,16,32,0,2,0,0,0,0,0,0,,18,
octadecanoic acid,C18H36O2,000057-11-4,CCCCCCCCCCCCCCCCCC(O)=O,sangster (1993) ,8.23,18,36,0,2,0,0,0,0,0,0,,20,
urea,C1H4N2O1,000057-13-6,NC(N)=O,"hansch,c et al. (1995) ",-2.11,1,4,2,1,0,0,0,0,0,0,,4,
"b,b,b-trichloro-t-butanol",C4H7Cl3O1,000057-15-8,C(Cl)(Cl)(Cl)C(C)(C)O,"hansch,c et al. (1995) ",2.03,4,7,0,1,0,0,0,3,0,0,,8,
certox,C21H22N2O2,000057-24-9,O=C1CC2OCC=C3CN4CCC56C4CC3C2C5N1c7ccccc67,"hansch,c et al. (1995) ",1.93,21,22,2,2,0,0,0,0,0,0,,25,
"morphinan-3,6-diol, 7,8-didehydro-4,5-epoxy-17-methyl- (5.alpha.,6.alpha.)-",C17H20N1O3,000057-27-2,CN1CC[C@]23[C@H]4Oc5c(O)ccc(C[C@@H]1[C@@H]2C=C[C@@H]4O)c35,"avdeef,a et al. (1996) ",0.89,17,20,1,3,0,0,0,0,0,0,,21,
"5,5-di(phenyl)imidazolidine-2,4-dione",C15H12N2O2,000057-41-0,O=C1NC(=O)C(N1)(c2ccccc2)c3ccccc3,"hansch,c et al. (1995) ",2.47,15,12,2,2,0,0,0,0,0,0,,19,
ethyl 1-methyl-4-phenylpiperidine-4-carboxylate,C15H21N1O2,000057-42-1,CCOC(=O)C1(CCN(C)CC1)c2ccccc2,sangster (1994) ,2.72,15,21,1,2,0,0,0,0,0,0,,18,
"5-ethyl-5-(3-methylbutyl)-1,3-diazinane-2,4,6-trione",C11H18N2O3,000057-43-2,CCC1(CCC(C)C)C(=O)NC(=O)NC1=O,"hansch,c et al. (1995) ",2.07,11,18,2,3,0,0,0,0,0,0,,16,
"5,5-diethyl-1,3-diazinane-2,4,6-trione",C8H12N2O3,000057-44-3,CCC1(CC)C(=O)NC(=O)NC1=O,"hansch,c et al. (1995) ",0.65,8,12,2,3,0,0,0,0,0,0,,13,