Names,Formula,CAS No,SMILES,Reference,Exp logp,C,H,N,O,S,P,F,Cl,Br,I,,,
pentanenitrile,C5H9N1,000110-59-8,CCCCC#N,"hansch,c et al. (1995) ",1.12,5,9,1,0,0,0,0,0,0,0,,6,
"butane-1,4-diamine",C4H12N2,000110-60-1,NCCCCN,sangster (1994) ,-0.7,4,12,2,0,0,0,0,0,0,0,,6,
butanedinitrile,C4H4N2,000110-61-2,N#CCCC#N,"tanii,h & hashimoto,k (1985) ",-0.99,4,4,2,0,0,0,0,0,0,0,,6,
"butane-1,4-diol",C4H10O2,000110-63-4,OCCCCO,"hansch,c et al. (1995) ",-0.83,4,10,0,2,0,0,0,0,0,0,,6,
"2-butene-1,4-diol",C4H8O2,000110-64-5,OCC=CCO,"hansch,c et al. (1995) ",-0.81,4,8,0,2,0,0,0,0,0,0,,6,
n-methylbutan-1-amine,C5H13N1,000110-68-9,CCCCNC,"hansch,c et al. (1995) ",1.33,5,13,1,0,0,0,0,0,0,0,,6,
"n,n'-dimethylethane-1,2-diamine",C4H12N2,000110-70-3,CNCCNC,"hansch,c et al. (1995) ",-0.62,4,12,2,0,0,0,0,0,0,0,,6,
"1,2-dimethoxyethane",C4H10O2,000110-71-4,COCCOC,"hansch,c et al. (1995) ",-0.21,4,10,0,2,0,0,0,0,0,0,,6,
propyl formate,C4H8O2,000110-74-7,CCCOC=O,"hansch,c et al. (1995) ",0.83,4,8,0,2,0,0,0,0,0,0,,6,
2-ethoxyethanol,C4H10O2,000110-80-5,CCOCCO,"hansch,c et al. (1995) ",-0.32,4,10,0,2,0,0,0,0,0,0,,6,
cyclohexane,C6H12,000110-82-7,C1CCCCC1,"hansch,c et al. (1995) ",3.44,6,12,0,0,0,0,0,0,0,0,,6,
cyclohexene,C6H10,000110-83-8,C1CCC=CC1,"hansch,c et al. (1995) ",2.86,6,10,0,0,0,0,0,0,0,0,,6,
piperazine,C4H10N2,000110-85-0,C1CNCCN1,"hansch,c et al. (1995) ",-1.5,4,10,2,0,0,0,0,0,0,0,,6,
pyridine,C5H5N1,000110-86-1,c1ccncc1,"hansch,c et al. (1995) ",0.65,5,5,1,0,0,0,0,0,0,0,,6,
"3,4-dihydro-2h-pyran",C5H8O1,000110-87-2,C1COC=CC1,"hansch,c et al. (1995) ",0.69,5,8,0,1,0,0,0,0,0,0,,6,
"1,3,5-trioxane",C3H6O3,000110-88-3,C1OCOCO1,"hansch,c et al. (1995) ",-0.43,3,6,0,3,0,0,0,0,0,0,,6,
piperidine,C5H11N1,000110-89-4,C1CCNCC1,"hansch,c et al. (1995) ",0.84,5,11,1,0,0,0,0,0,0,0,,6,
morpholine,C4H9N1O1,000110-91-8,C1COCCN1,"hansch,c et al. (1995) ",-0.86,4,9,1,1,0,0,0,0,0,0,,6,
pentanedioic acid,C5H8O4,000110-94-1,OC(=O)CCCC(O)=O,"hansch,c et al. (1995) ",-0.29,5,8,0,4,0,0,0,0,0,0,,9,
1-(2-hydroxypropylamino)propan-2-ol,C6H15N1O2,000110-97-4,CC(O)CNCC(C)O,"hansch,c et al. (1995) ",-0.82,6,15,1,2,0,0,0,0,0,0,,9,
octan-2-one,C8H16O1,000111-13-7,CCCCCCC(C)=O,"tanii,h & hashimoto,k (1986) ",2.37,8,16,0,1,0,0,0,0,0,0,,9,
heptanoic acid,C7H14O2,000111-14-8,CCCCCCC(O)=O,sangster (1994) ,2.42,7,14,0,2,0,0,0,0,0,0,,9,
heptanedioic acid,C7H12O4,000111-16-0,OC(=O)CCCCCC(O)=O,"hansch,c et al. (1995) ",0.61,7,12,0,4,0,0,0,0,0,0,,11,
1-bromohexane,C6H13Br1,000111-25-1,CCCCCCBr,"hansch,c et al. (1995) ",3.8,6,13,0,0,0,0,0,0,1,0,,7,
hexan-1-amine,C6H15N1,000111-26-2,CCCCCCN,"hansch,c et al. (1995) ",2.06,6,15,1,0,0,0,0,0,0,0,,7,
hexan-1-ol,C6H14O1,000111-27-3,CCCCCCO,"hansch,c et al. (1995) ",2.03,6,14,0,1,0,0,0,0,0,0,,7,
2-(2-hydroxyethylamino)ethanol,C4H11N1O2,000111-42-2,OCCNCCO,"hansch,c et al. (1995) ",-1.43,4,11,1,2,0,0,0,0,0,0,,7,
1-propoxypropane,C6H14O1,000111-43-3,CCCOCCC,"hansch,c et al. (1995) ",2.03,6,14,0,1,0,0,0,0,0,0,,7,
bis(2-chloroethyl) ether,C4H8Cl2O1,000111-44-4,ClCCOCCCl,"hansch,c et al. (1995) ",1.29,4,8,0,1,0,0,0,2,0,0,,7,
2-prop-2-enoxyethanol,C5H10O2,000111-45-5,OCCOCC=C,"tanii,h et al. (1992) ",-0.1,5,10,0,2,0,0,0,0,0,0,,7,
2-(2-hydroxyethylsulfanyl)ethanol,C4H10O2S1,000111-48-8,OCCSCCO,"hansch,c et al. (1995) ",-0.63,4,10,0,2,1,0,0,0,0,0,,7,
octane,C8H18,000111-65-9,CCCCCCCC,"miller,mm et al. (1985) ",5.18,8,18,0,0,0,0,0,0,0,0,,8,
oct-1-ene,C8H16,025377-83-7,CCCCCCC=C,"hansch,c et al. (1995) ",4.57,8,16,0,0,0,0,0,0,0,0,,8,
heptan-1-amine,C7H17N1,000111-68-2,CCCCCCCN,"hansch,c et al. (1995) ",2.57,7,17,1,0,0,0,0,0,0,0,,8,
hexanedinitrile,C6H8N2,000111-69-3,N#CCCCCC#N,"tanii,h & hashimoto,k (1985) ",-0.32,6,8,2,0,0,0,0,0,0,0,,8,
heptan-1-ol,C7H16O1,000111-70-6,CCCCCCCO,sangster (1994) ,2.62,7,16,0,1,0,0,0,0,0,0,,8,
"n,n'-diethylethane-1,2-diamine",C6H16N2,000111-74-0,CCNCCNCC,"hansch,c et al. (1995) ",0.21,6,16,2,0,0,0,0,0,0,0,,8,
2-butoxyethanol,C6H14O2,000111-76-2,CCCCOCCO,"hansch,c et al. (1995) ",0.83,6,14,0,2,0,0,0,0,0,0,,8,
"cycloocta-1,5-diene",C8H12,000111-78-4,C1CC=CCCC=C1,"hansch,c et al. (1995) ",3.16,8,12,0,0,0,0,0,0,0,0,,8,
methyl dodecanoate,C13H26O2,000111-82-0,CCCCCCCCCCCC(=O)OC,"krop,hb et al. (1997) ",5.41,13,26,0,2,0,0,0,0,0,0,,15,
1-bromooctane,C8H17Br1,000111-83-1,CCCCCCCCBr,"hansch,c et al. (1995) ",4.89,8,17,0,0,0,0,0,0,1,0,,9,
nonane,C9H20,000111-84-2,CCCCCCCCC,daylight (2003) ,5.65,9,20,0,0,0,0,0,0,0,0,,9,
octan-1-amine,C8H19N1,000111-86-4,CCCCCCCCN,sangster (1993) ,2.9,8,19,1,0,0,0,0,0,0,0,,9,
octan-1-ol,C8H18O1,000111-87-5,CCCCCCCCO,"hansch,c et al. (1995) ",3,8,18,0,1,0,0,0,0,0,0,,9,
2-(2-ethoxyethoxy)ethanol,C6H14O3,000111-90-0,CCOCCOCCO,"funasaki,n et al. (1984) ",-0.54,6,14,0,3,0,0,0,0,0,0,,9,
n-butylbutan-1-amine,C8H19N1,000111-92-2,CCCCNCCCC,"hansch,c et al. (1995) ",2.83,8,19,1,0,0,0,0,0,0,0,,9,
3-(2-cyanoethylamino)propanenitrile,C6H9N3,000111-94-4,N#CCCNCCC#N,chemicals inspection and testing institu (1992) ,-1.34,6,9,3,0,0,0,0,0,0,0,,9,
1-methoxy-2-(2-methoxyethoxy)ethane,C6H14O3,000111-96-6,COCCOCCOC,"funasaki,n et al. (1984) ",-0.36,6,14,0,3,0,0,0,0,0,0,,9,
nonanoic acid,C9H18O2,000112-05-0,CCCCCCCCC(O)=O,sangster (1993) ,3.42,9,18,0,2,0,0,0,0,0,0,,11,
undecan-2-one,C11H22O1,000112-12-9,CCCCCCCCCC(C)=O,"tanii,h & hashimoto,k (1986) ",4.09,11,22,0,1,0,0,0,0,0,0,,12,
2-hexoxyethanol,C8H18O2,000112-25-4,CCCCCCOCCO,"funasaki,n et al. (1984) ",1.86,8,18,0,2,0,0,0,0,0,0,,10,
2-[2-(2-hydroxyethoxy)ethoxy]ethanol,C6H14O4,000112-27-6,OCCOCCOCCO,"meylan,wm & howard,ph (1995) ",-1.75,6,14,0,4,0,0,0,0,0,0,,10,
decan-1-ol,C10H22O1,000112-30-1,CCCCCCCCCCO,"hansch,c et al. (1995) ",4.57,10,22,0,1,0,0,0,0,0,0,,11,
2-(2-butoxyethoxy)ethanol,C8H18O3,000112-34-5,CCCCOCCOCCO,"hansch,c et al. (1995) ",0.56,8,18,0,3,0,0,0,0,0,0,,11,
1-ethoxy-2-(2-ethoxyethoxy)ethane,C8H18O3,000112-36-7,CCOCCOCCOCC,"funasaki,n et al. (1984) ",0.39,8,18,0,3,0,0,0,0,0,0,,11,
undecanoic acid,C11H22O2,000112-37-8,CCCCCCCCCCC(O)=O,sangster (1993) ,4.42,11,22,0,2,0,0,0,0,0,0,,13,
undec-10-enoic acid,C11H20O2,000112-38-9,OC(=O)CCCCCCCCC=C,"hansch,c et al. (1995) ",3.86,11,20,0,2,0,0,0,0,0,0,,13,
methyl hexadecanoate,C17H34O2,000112-39-0,CCCCCCCCCCCCCCCC(=O)OC,"krop,hb et al. (1997) ",7.38,17,34,0,2,0,0,0,0,0,0,,19,
dodecane,C12H26,000112-40-3,CCCCCCCCCCCC,"coates,m et al. (1985) ",6.1,12,26,0,0,0,0,0,0,0,0,,12,
1-(2-butoxyethoxy)butane,C10H22O2,000112-48-1,CCCCOCCOCCCC,"funasaki,n et al. (1984) ",2.48,10,22,0,2,0,0,0,0,0,0,,12,
dodecan-1-ol,C12H26O1,000112-53-8,CCCCCCCCCCCCO,"hansch,c et al. (1995) ",5.13,12,26,0,1,0,0,0,0,0,0,,13,
1-[2-(2-thiocyanatoethoxy)ethoxy]butane,C9H17N1O2S1,000112-56-1,CCCCOCCOCCSC#N,"hansch,c et al. (1995) ",1.68,9,17,1,2,1,0,0,0,0,0,,13,
2-(2-hexoxyethoxy)ethanol,C10H22O3,000112-59-4,CCCCCCOCCOCCO,"funasaki,n et al. (1984) ",1.7,10,22,0,3,0,0,0,0,0,0,,13,
methyl octadecanoate,C19H38O2,000112-61-8,CCCCCCCCCCCCCCCCCC(=O)OC,"krop,hb et al. (1997) ",8.35,19,38,0,2,0,0,0,0,0,0,,21,
methyl oleate,C19H36O2,000112-62-9,CCCCCCCC\C=C/CCCCCCCC(=O)OC,"krop,hb et al. (1997) ",7.45,19,36,0,2,0,0,0,0,0,0,,21,
methyl linoleate,C19H34O2,000112-63-0,CCCCC/C=C\C\C=C/CCCCCCCC(=O)OC,"krop,hb et al. (1997) ",6.82,19,34,0,2,0,0,0,0,0,0,,21,
tetradecan-1-ol,C14H30O1,000112-72-1,CCCCCCCCCCCCCCO,"burkhard,lp et al. (1985b) ",6.03,14,30,0,1,0,0,0,0,0,0,,15,
1-[2-(2-butoxyethoxy)ethoxy]butane,C12H26O3,000112-73-2,CCCCOCCOCCOCCCC,"funasaki,n et al. (1984) ",1.92,12,26,0,3,0,0,0,0,0,0,,15,
methyl 2-phenyl-2-piperidin-2-ylacetate,C14H19N1O2,000113-45-1,COC(=O)C(C1CCCCN1)c2ccccc2,"hansch,c et al. (1995); ph 7.2 ",0.2,14,19,1,2,0,0,0,0,0,0,,17,
113-48-4,C17H25N1O2,000113-48-4,CCCCC(CC)CN1C(=O)C2C3CC(C=C3)C2C1=O,"tomlin,c (1994) ",3.7,17,25,1,2,0,0,0,0,0,0,,20,
dolsulepine,C19H21N1S1,000113-53-1,CN(C)CCC=C1c3ccccc3CSc2ccccc12,"hansch,c et al. (1995) ",4.49,19,21,1,0,1,0,0,0,0,0,,21,
chlorprothixene,C18H18Cl1N1S1,000113-59-7,CN(C)CC\C=C/1c2ccccc2Sc3ccc(Cl)cc13,"hansch,c et al. (1995) ",5.18,18,18,1,0,1,0,0,1,0,0,,21,
erythromycin,C37H67N1O13,000114-07-8,CC[C@H]1OC(=O)[C@H](C)[C@@H](O[C@H]2C[C@@](C)(OC)[C@@H](O)[C@H](C)O2)[C@H](C)[C@@H](O[C@@H]3O[C@H](C)C[C@@H]([C@H]3O)N(C)C)[C@](C)(O)C[C@@H](C)C(=O)[C@H](C)[C@@H](O)[C@]1(C)O,"mcfarland,jw et al. (1997) ",3.06,37,67,1,13,0,0,0,0,0,0,,51,
(2-propan-2-yloxyphenyl) n-methylcarbamate,C11H15N1O3,000114-26-1,CNC(=O)Oc1ccccc1OC(C)C,"hansch,c et al. (1995) ",1.52,11,15,1,3,0,0,0,0,0,0,,15,
o-chlorophenylurea,C7H7Cl1N2O1,000114-38-5,c1(NC(=O)N)ccccc1Cl,"hansch,c et al. (1995) ",1.27,7,7,2,1,0,0,0,1,0,0,,11,
phenformin,C10H15N5,000114-86-3,NC(N)=NC(N)=NCCc1ccccc1,"hansch,c et al. (1995) ",-0.83,10,15,5,0,0,0,0,0,0,0,,15,
prop-1-ene,C3H6,000115-07-1,CC=C,"hansch,c et al. (1995) ",1.77,3,6,0,0,0,0,0,0,0,0,,3,
methoxymethane,C2H6O1,000115-10-6,COC,"hansch,c et al. (1995) ",0.1,2,6,0,1,0,0,0,0,0,0,,3,
2-methylprop-1-ene,C4H8,000115-11-7,CC(C)=C,"hansch,c et al. (1995) ",2.34,4,8,0,0,0,0,0,0,0,0,,4,
2-methylbut-3-yn-2-ol,C5H8O1,000115-19-5,CC(C)(O)C#C,"hansch,c et al. (1995) ",0.28,5,8,0,1,0,0,0,0,0,0,,6,
"2,2,2-trichloroethanol",C2H3Cl3O1,000115-20-8,OCC(Cl)(Cl)Cl,"hansch,c et al. (1995) ",1.42,2,3,0,1,0,0,0,3,0,0,,6,
a-endosulfan,C9H6Cl6O3S1,000959-98-8,O1CC2C3(Cl)C(Cl)(Cl)C(Cl)(C2COS1=O)C(Cl)=C3Cl,"hansch,c et al. (1995) ",3.83,9,6,0,3,1,0,0,6,0,0,,19,
dicofol,C14H9Cl5O1,000115-32-2,OC(c1ccc(Cl)cc1)(c2ccc(Cl)cc2)C(Cl)(Cl)Cl,"saito,h et al. (1993) ",5.02,14,9,0,1,0,0,0,5,0,0,,20,
"5-ethyl-1-methyl-5-phenyl-1,3-diazinane-2,4,6-trione",C13H14N2O3,000115-38-8,CCC1(C(=O)NC(=O)N(C)C1=O)c2ccccc2,"hansch,c et al. (1995) ",1.84,13,14,2,3,0,0,0,0,0,0,,18,
"5-phenyl-5-prop-2-enyl-1,3-diazinane-2,4,6-trione",C13H12N2O3,000115-43-5,C=CCC1(C(=O)NC(=O)NC1=O)c2ccccc2,sangster (1993) ,1.69,13,12,2,3,0,0,0,0,0,0,,18,
"5-butan-2-yl-5-prop-2-enyl-1,3-diazinane-2,4,6-trione",C11H16N2O3,000115-44-6,CCC(C)C1(CC=C)C(=O)NC(=O)NC1=O,"hansch,c et al. (1995) ",1.47,11,16,2,3,0,0,0,0,0,0,,16,
"5-ethyl-5-(2-methylprop-2-enyl)-2-sulfanylidene-1,3-diazinane-4,6-dione",C10H14N2O2S1,000115-56-0,CCC1(CC(C)=C)C(=O)NC(=S)NC1=O,"hansch,c et al. (1995) ",2.19,10,14,2,2,1,0,0,0,0,0,,15,
"5-ethyl-5-pentyl-1,3-diazinane-2,4,6-trione",C11H18N2O3,000115-58-2,CCCCCC1(CC)C(=O)NC(=O)NC1=O,"hansch,c et al. (1995) ",2.24,11,18,2,3,0,0,0,0,0,0,,16,
"2,2-bis(hydroxymethyl)propane-1,3-diol",C5H12O4,000115-77-5,OCC(CO)(CO)CO,tscats ,-1.69,5,12,0,4,0,0,0,0,0,0,,9,
triphenyl phosphate,C18H15O4P1,000115-86-6,O=[P](Oc1ccccc1)(Oc2ccccc2)Oc3ccccc3,"hansch,c et al. (1995) ",4.59,18,15,0,4,0,1,0,0,0,0,,23,
diethoxy-(4-methylsulfinylphenoxy)-sulfanylidenephosphorane,C11H17O4P1S2,000115-90-2,CCO[P](=S)(OCC)Oc1ccc(cc1)[S](C)=O,"hansch,c et al. (1995) ",2.23,11,17,0,4,2,1,0,0,0,0,,18,
"3,7-dimethylocta-1,6-dien-3-yl acetate",C12H20O2,000115-95-7,CC(C)=CCCC(C)(OC(C)=O)C=C,"griffin,s et al. (1999) ",3.93,12,20,0,2,0,0,0,0,0,0,,14,
tri-2-chloroethyl phosphate,C6H12Cl3O4P1,000115-96-8,O=P(OCCCl)(OCCCl)OCCCl,chemicals inspection and testing institu (1992) ,1.44,6,12,0,4,0,1,0,3,0,0,,14,
aldicarb,C7H14N2O2S1,000116-06-3,CNC(=O)O\N=C\C(C)(C)SC,"hansch,c et al. (1995) ",1.13,7,14,2,2,1,0,0,0,0,0,,12,
tetradifon,C12H6Cl4O2S1,000116-29-0,Clc1ccc(cc1)[S](=O)(=O)c2cc(Cl)c(Cl)cc2Cl,"tomlin,c (1997) ",4.61,12,6,0,2,1,0,0,4,0,0,,19,
2-methylbutanoic acid,C5H10O2,000116-53-0,CCC(C)C(O)=O,"hansch,c et al. (1995) ",1.18,5,10,0,2,0,0,0,0,0,0,,7,
"2,3,5,6-tetrachloronitrobenzene",C6H1Cl4N1O2,000117-18-0,[O-][N+](=O)c1c(Cl)c(Cl)cc(Cl)c1Cl,biobyte (1995) ,4.38,6,1,1,2,0,0,0,4,0,0,,13,
"2,2-di(phenyl)acetic acid",C14H12O2,000117-34-0,OC(=O)C(c1ccccc1)c2ccccc2,"hansch,c et al. (1995) ",3.09,14,12,0,2,0,0,0,0,0,0,,16,
"2-(4-methoxyphenyl)indene-1,3-dione",C16H12O3,000117-37-3,COc1ccc(cc1)C2C(=O)c3ccccc3C2=O,sangster (1993) ,2.88,16,12,0,3,0,0,0,0,0,0,,19,
5-hydroxynaphthalene-1-sulfonic acid,C10H8O4S1,000117-59-9,Oc1cccc2c1cccc2[S](O)(=O)=O,sangster (1993) ,-0.17,10,8,0,4,1,0,0,0,0,0,,15,
"2-aminoanthracene-9,10-dione",C14H9N1O2,000117-79-3,Nc1ccc2C(=O)c3ccccc3C(=O)c2c1,chemicals inspection and testing institu (1992) ,3.31,14,9,1,2,0,0,0,0,0,0,,17,
"bis(2-ethylhexyl) benzene-1,2-dicarboxylate",C24H38O4,000117-81-7,CCCCC(CC)COC(=O)c1ccccc1C(=O)OCC(CC)CCCC,"debruijn,j et al. (1989) ",7.6,24,38,0,4,0,0,0,0,0,0,,28,
"dioctyl benzene-1,2-dicarboxylate",C24H38O4,000117-84-0,CCCCCCCCOC(=O)c1ccccc1C(=O)OCCCCCCCC,"ellington,jt & floyd,tl (1996) ",8.1,24,38,0,4,0,0,0,0,0,0,,28,
(2-hydroxyphenyl)-phenylmethanone,C13H10O2,000117-99-7,Oc1ccccc1C(=O)c2ccccc2,"hansch,c et al. (1995) ",3.52,13,10,0,2,0,0,0,0,0,0,,15,
guanosine,C10H13N5O5,000118-00-3,NC1=Nc2n(cnc2C(=O)N1)[C@@H]3O[C@H](CO)[C@@H](O)[C@H]3O,sangster (1993) ,-1.9,10,13,5,5,0,0,0,0,0,0,,20,
(5-ethenyl-1-azabicyclo[2.2.2]octan-7-yl)-quinolin-4-ylmethanol,C19H22N2O1,000485-71-2,OC(C1CC2CCN1CC2C=C)c3ccnc4ccccc34,sangster (1994) ,2.82,19,22,2,1,0,0,0,0,0,0,,22,
n-ethylnaphthalen-1-amine,C12H13N1,000118-44-5,CCNc1cccc2ccccc12,chemicals inspection and testing institu (1992) ,3.45,12,13,1,0,0,0,0,0,0,0,,13,
ethyl 2-hydroxybenzoate,C9H10O3,000118-61-6,CCOC(=O)c1ccccc1O,"korenman,yi & danilov,vn (1990) ",2.95,9,10,0,3,0,0,0,0,0,0,,12,
"2,6-dichlorotoluene",C7H6Cl2,000118-69-4,Cc1c(Cl)cccc1Cl,biobyte (1995) ,3.99,7,6,0,0,0,0,0,2,0,0,,9,
hexachlorobenzene,C6Cl6,000118-74-1,Clc1c(Cl)c(Cl)c(Cl)c(Cl)c1Cl,"debruijn,j et al. (1989) ",5.73,6,0,0,0,0,0,0,6,0,0,,12,
"2,4,6-tribromophenol",C6H3Br3O1,000118-79-6,Oc1c(Br)cc(Br)cc1Br,"hansch,c et al. (1995) ",4.13,6,3,0,1,0,0,0,0,3,0,,10,
4-chloro-1-nitro-2(trifluoromethyl)benzene,C7H3Cl1F3N1O2,000118-83-2,[O-][N+](=O)c1ccc(Cl)cc1C(F)(F)F,chemicals inspection and testing institu (1992) ,3.2,7,3,1,2,0,0,3,1,0,0,,14,
2-methylbenzoic acid,C8H8O2,000118-90-1,Cc1ccccc1C(O)=O,"hansch,c et al. (1995) ",2.46,8,8,0,2,0,0,0,0,0,0,,10,
2-chlorobenzoic acid,C7H5Cl1O2,000118-91-2,OC(=O)c1ccccc1Cl,"hansch,c et al. (1995) ",2.05,7,5,0,2,0,0,0,1,0,0,,10,
2-aminobenzoic acid,C7H7N1O2,000118-92-3,Nc1ccccc1C(O)=O,"hansch,c et al. (1995) ",1.21,7,7,1,2,0,0,0,0,0,0,,10,
1-(2-hydroxyphenyl)ethanone,C8H8O2,000118-93-4,CC(=O)c1ccccc1O,"hansch,c et al. (1995) ",1.92,8,8,0,2,0,0,0,0,0,0,,10,
"2-methyl-1,3,5-trinitrobenzene",C7H5N3O6,000118-96-7,Cc1c(cc(cc1[N+]([O-])=O)[N+]([O-])=O)[N+]([O-])=O,"hansch,c et al. (1995) ",1.6,7,5,3,6,0,0,0,0,0,0,,16,
"4-chloro-3,5-dinitrobenzoic acid",C7H3Cl1N2O6,000118-97-8,OC(=O)c1cc(c(Cl)c(c1)[N+]([O-])=O)[N+]([O-])=O,"hansch,c et al. (1995) ",2.5,7,3,2,6,0,0,0,1,0,0,,16,
"(2,4-dinitrophenyl)hydrazine",C6H6N4O4,000119-26-6,NNc1ccc(cc1[N+]([O-])=O)[N+]([O-])=O,"hansch,c et al. (1995) ",1.47,6,6,4,4,0,0,0,0,0,0,,14,
2-hydroxy-5-iodobenzoic acid,C7H5I1O3,000119-30-2,OC(=O)c1cc(I)ccc1O,sangster (1994) ,3.34,7,5,0,3,0,0,0,0,0,1,,11,
4-amino-2-nitrophenol,C6H6N2O3,000119-34-6,Nc1ccc(O)c(c1)[N+]([O-])=O,"bronaugh,rl & congdon,er (1984) ",0.96,6,6,2,3,0,0,0,0,0,0,,11,
methyl 2-hydroxybenzoate,C8H8O3,000119-36-8,COC(=O)c1ccccc1O,sangster (1994) ,2.55,8,8,0,3,0,0,0,0,0,0,,11,
2-tert-butyl-6-[(3-tert-butyl-2-hydroxy-5-methylphenyl)methyl]-4-methylphenol,C23H32O2,000119-47-1,Cc1cc(Cc2cc(C)cc(c2O)C(C)(C)C)c(O)c(c1)C(C)(C)C,chemicals inspection and testing institu (1992) ,6.25,23,32,0,2,0,0,0,0,0,0,,25,
"benzenemethanol, 4-chloro-.alpha.-phenyl-",C13H11Cl1O1,000119-56-2,OC(c1ccccc1)c2ccc(Cl)cc2,chemicals inspection and testing institu (1992) ,3.61,13,11,0,1,0,0,0,1,0,0,,15,
di(phenyl)methanone,C13H10O1,000119-61-9,O=C(c1ccccc1)c2ccccc2,"hansch,c et al. (1995) ",3.18,13,10,0,1,0,0,0,0,0,0,,14,
"1,2,3,4-tetrahydronaphthalene",C10H12,000119-64-2,C1CCc2ccccc2C1,"hansch,c et al. (1995) ",3.49,10,12,0,0,0,0,0,0,0,0,,10,
isoquinoline,C9H7N1,000119-65-3,c1ccc2cnccc2c1,"hansch,c et al. (1995) ",2.08,9,7,1,0,0,0,0,0,0,0,,10,
n-hydroxy-2-(phenylamino)benzeneamine oxide,C12H10N2O2,000119-75-5,O[NH+]([O-])c1ccccc1Nc2ccccc2,"hansch,c et al. (1995) ",3.66,12,10,2,2,0,0,0,0,0,0,,16,
4-(4-amino-3-methoxyphenyl)-2-methoxyaniline,C14H16N2O2,000119-90-4,COc1cc(ccc1N)c2ccc(N)c(OC)c2,"debnath,ak et al. (1992) ",1.81,14,16,2,2,0,0,0,0,0,0,,18,
2-quinolin-2-ylquinoline,C18H12N2,000119-91-5,c1ccc2nc(ccc2c1)c3ccc4ccccc4n3,"hansch,c et al. (1995) ",4.31,18,12,2,0,0,0,0,0,0,0,,20,
4-(4-amino-3-methylphenyl)-2-methylaniline,C14H16N2,000119-93-7,Cc1cc(ccc1N)c2ccc(N)c(C)c2,"hansch,c et al. (1995) ",2.34,14,16,2,0,0,0,0,0,0,0,,16,
2-(4-methylphenyl)-1h-benzimidazole,C14H12N2,000120-03-6,Cc1ccc(cc1)c2[nH]c3ccccc3n2,"ertepinar,h et al. (1995) ",3.67,14,12,2,0,0,0,0,0,0,0,,16,
anthracene,C14H10,000120-12-7,c1ccc2cc3ccccc3cc2c1,"hansch,c et al. (1995) ",4.45,14,10,0,0,0,0,0,0,0,0,,14,
"3,4-dimethoxybenzaldehyde",C9H10O3,000120-14-9,COc1ccc(C=O)cc1OC,"bazaco,jf & coca,cm (1989) ",1.22,9,10,0,3,0,0,0,0,0,0,,12,
naphthalene-2-sulfonic acid,C10H8O3S1,000120-18-3,O[S](=O)(=O)c1ccc2ccccc2c1,"hansch,c et al. (1995) ",0.63,10,8,0,3,1,0,0,0,0,0,,14,
"2-(3,4-dimethoxyphenyl)ethanamine",C10H15N1O2,000120-20-7,COc1ccc(CCN)cc1OC,"hansch,c et al. (1995) ",0.77,10,15,1,2,0,0,0,0,0,0,,13,
2-naphthalen-2-yloxyacetic acid,C12H10O3,000120-23-0,OC(=O)COc1ccc2ccccc2c1,"hansch,c et al. (1995) ",2.53,12,10,0,3,0,0,0,0,0,0,,15,
4-ethoxy-3-methoxybenzaldehyde,C10H12O3,000120-25-2,CCOc1ccc(C=O)cc1OC,"jin,lj et al. (1998) ",1.63,10,12,0,3,0,0,0,0,0,0,,13,
"1-(3,4-dimethoxyphenyl)propan-2-amine",C11H17N1O2,000120-26-3,COc1ccc(CC(C)N)cc1OC,sangster (1993) ,1.2,11,17,1,2,0,0,0,0,0,0,,14,
5-chloro-2-hydroxydiphenylmethane,C13H11Cl1O1,000120-32-1,Oc1ccc(Cl)cc1Cc2ccccc2,"werner,af et al. (1983) ",3.6,13,11,0,1,0,0,0,1,0,0,,15,
ethyl 4-hydroxybenzoate,C9H10O3,000120-47-8,CCOC(=O)c1ccc(O)cc1,"hansch,c et al. (1995) ",2.47,9,10,0,3,0,0,0,0,0,0,,12,
phenylmethyl benzoate,C14H12O2,000120-51-4,O=C(OCc1ccccc1)c2ccccc2,"hansch,c et al. (1995) ",3.97,14,12,0,2,0,0,0,0,0,0,,16,
piperidine-1-carbothioylsulfanyldisulfanyl piperidine-1-carbodithioate,C12H20N2S6,000120-54-7,S=C(SSSSC(=S)N1CCCCC1)N2CCCCC2,chemicals inspection and testing institu (1992) ,2.8,12,20,2,0,6,0,0,0,0,0,,20,
"1,3-benzodioxole-5-carbaldehyde",C8H6O3,000120-57-0,O=Cc1ccc2OCOc2c1,"hansch,c et al. (1995) ",1.05,8,6,0,3,0,0,0,0,0,0,,11,
"dimethyl benzene-1,4-dicarboxylate",C10H10O4,000120-61-6,COC(=O)c1ccc(cc1)C(=O)OC,"hansch,c et al. (1995) ",2.25,10,10,0,4,0,0,0,0,0,0,,14,
n-(2-methylphenyl)acetamide,C9H11N1O1,000120-66-1,CC(=O)Nc1ccccc1C,"hansch,c et al. (1995) ",0.85,9,11,1,1,0,0,0,0,0,0,,11,
2-methoxy-5-methylaniline,C8H11N1O1,000120-71-8,COc1ccc(C)cc1N,"hansch,c et al. (1995) ",1.74,8,11,1,1,0,0,0,0,0,0,,10,
1h-indole,C8H7N1,000120-72-9,[nH]1ccc2ccccc12,"hansch,c et al. (1995) ",2.14,8,7,1,0,0,0,0,0,0,0,,9,
7h-purine,C5H4N4,000120-73-0,[nH]1cnc2ncncc12,"hansch,c et al. (1995) ",-0.37,5,4,4,0,0,0,0,0,0,0,,9,
"benzene-1,2-diol",C6H6O2,000120-80-9,Oc1ccccc1O,"hansch,c et al. (1995) ",0.88,6,6,0,2,0,0,0,0,0,0,,8,
"1,2,4-trichlorobenzene",C6H3Cl3,000120-82-1,Clc1ccc(Cl)c(Cl)c1,"hansch,c et al. (1995) ",4.02,6,3,0,0,0,0,0,3,0,0,,9,
"2,4-dichlorophenol",C6H4Cl2O1,000120-83-2,Oc1ccc(Cl)cc1Cl,"hansch,c et al. (1995) ",3.06,6,4,0,1,0,0,0,2,0,0,,9,
cyclopentanone,C5H8O1,000120-92-3,O=C1CCCC1,daylight (2003) ,0.38,5,8,0,1,0,0,0,0,0,0,,6,
1-methylpyrrolidine,C5H11N1,000120-94-5,CN1CCCC1,"hansch,c et al. (1995) ",0.92,5,11,1,0,0,0,0,0,0,0,,6,
"1-methyl-2,4-dinitrobenzene",C7H6N2O4,000121-14-2,Cc1ccc(cc1[N+]([O-])=O)[N+]([O-])=O,"hansch,c et al. (1995) ",1.98,7,6,2,4,0,0,0,0,0,0,,13,
pyrethrin i,C21H28O3,000121-21-1,CC(C)=C[C@@H]1[C@@H](C(=O)O[C@H]2CC(=O)C(=C2C)C\C=C/C=C)C1(C)C,"tomlin,c (1997) ",5.9,21,28,0,3,0,0,0,0,0,0,,24,
pyrethrin ii,C22H28O5,000121-29-9,COC(=O)C(/C)=C/[C@@H]1[C@@H](C(=O)O[C@H]2CC(=O)C(=C2C)C\C=C/C=C)C1(C)C,"tomlin,c (1997) ",4.3,22,28,0,5,0,0,0,0,0,0,,27,
chloaminophenamide,C6H8Cl1N3O4S2,000121-30-2,O=S(N)(=O)c1cc(S(N)(=O)=O)c(Cl)cc1N,"berthod,a et al. (1999) ",-0.41,6,8,3,4,2,0,0,1,0,0,,16,
3-ethoxy-4-hydroxybenzaldehyde,C9H10O3,000121-32-4,CCOc1cc(C=O)ccc1O,"bazaco,jf & coca,cm (1989) ",1.58,9,10,0,3,0,0,0,0,0,0,,12,
4-hydroxy-3-methoxybenzaldehyde,C8H8O3,000121-33-5,COc1cc(C=O)ccc1O,"hansch,c et al. (1995) ",1.21,8,8,0,3,0,0,0,0,0,0,,11,