Names,Formula,CAS No,SMILES,Reference,Exp logp,C,H,N,O,S,P,F,Cl,Br,I,,,
xanthine,C5H4N4O2,000069-89-6,O=C1NC(=O)c2[nH]cnc2N1,"hansch,c et al. (1995) ",-0.73,5,4,4,2,0,0,0,0,0,0,,11,
2-amino-2-phenylacetic acid,C8H9N1O2,002835-06-5,NC(C(O)=O)c1ccccc1,"hansch,c et al. (1995) ",-2.07,8,9,1,2,0,0,0,0,0,0,,11,
"1-[4-hydroxy-5-(hydroxymethyl)oxolan-2-yl]-5-(trifluoromethyl)pyrimidine-2,4-dione",C10H11F3N2O5,000070-00-8,OCC1OC(CC1O)N2C=C(C(=O)NC2=O)C(F)(F)F,"hansch,c et al. (1995) ",-0.46,10,11,2,5,0,0,3,0,0,0,,20,
2-bromo-1-phenylethanone,C8H7Br1O1,000070-11-1,BrCC(=O)c1ccccc1,sangster (1993) ,2.19,8,7,0,1,0,0,0,0,1,0,,10,
"2,5-diaminopentanoic acid",C5H12N2O2,000070-26-8,NCCCC(N)C(O)=O,sangster (1994) ,-4.22,5,12,2,2,0,0,0,0,0,0,,9,
hexachlorophene,C13H6Cl6O2,000070-30-4,Oc1c(Cl)cc(Cl)c(Cl)c1Cc2c(O)c(Cl)cc(Cl)c2Cl,"hansch,c et al. (1995) ",7.54,13,6,0,2,0,0,0,6,0,0,,21,
"2,4-diamino-4-oxobutanoic acid",C4H8N2O3,000070-47-3,NC(CC(N)=O)C(O)=O,"chmelik,j et al. (1991) ",-3.82,4,8,2,3,0,0,0,0,0,0,,9,
4-methylbenzenesulfonamide,C7H9N1O2S1,000070-55-3,Cc1ccc(cc1)[S](N)(=O)=O,"hansch,c et al. (1995) ",0.82,7,9,1,2,1,0,0,0,0,0,,11,
1-(4-hydroxyphenyl)propan-1-one,C9H10O2,000070-70-2,CCC(=O)c1ccc(O)cc1,"hansch,c et al. (1995) ",2.03,9,10,0,2,0,0,0,0,0,0,,11,
2-amino-3-(3h-imidazol-4-yl)propanoic acid,C6H9N3O2,000071-00-1,NC(Cc1[nH]cnc1)C(O)=O,"chmelik,j et al. (1991) ",-3.32,6,9,3,2,0,0,0,0,0,0,,11,
propan-1-ol,C3H8O1,000071-23-8,CCCO,"hansch,c et al. (1995) ",0.25,3,8,0,1,0,0,0,0,0,0,,4,
"1h-1,3,5-triazine-2,4-dione",C3H3N3O2,000071-33-0,O=C1NC=NC(=O)N1,"hansch,c et al. (1995) ",-1.87,3,3,3,2,0,0,0,0,0,0,,8,
butan-1-ol,C4H10O1,000071-36-3,CCCCO,"hansch,c et al. (1995) ",0.88,4,10,0,1,0,0,0,0,0,0,,5,
pentan-1-ol,C5H12O1,000071-41-0,CCCCCO,sangster (1994) ,1.51,5,12,0,1,0,0,0,0,0,0,,6,
benzene,C6H6,000071-43-2,c1ccccc1,"hansch,c et al. (1995) ",2.13,6,6,0,0,0,0,0,0,0,0,,6,
"1,1,1-trichloroethane",C2H3Cl3,000071-55-6,CC(Cl)(Cl)Cl,"hansch,c et al. (1995) ",2.49,2,3,0,0,0,0,0,3,0,0,,5,
"4-amino-n-(1,3-thiazol-2-yl)benzenesulfonamide",C9H9N3O2S2,000072-14-0,Nc1ccc(cc1)[S](=O)(=O)Nc2sccn2,"hansch,c et al. (1995) ",0.05,9,9,3,2,2,0,0,0,0,0,,16,
2-amino-3-methylbutanoic acid,C5H11N1O2,000072-18-4,CC(C)C(N)C(O)=O,"hansch,c et al. (1995) ",-2.26,5,11,1,2,0,0,0,0,0,0,,8,
2-amino-3-hydroxybutanoic acid,C4H9N1O3,000072-19-5,CC(O)C(N)C(O)=O,"hansch,c et al. (1995) ",-2.94,4,9,1,3,0,0,0,0,0,0,,8,
methoxychlor,C16H15Cl3O2,000072-43-5,COc1ccc(cc1)C(c2ccc(OC)cc2)C(Cl)(Cl)Cl,"hansch,c et al. (1995) ",5.08,16,15,0,2,0,0,0,3,0,0,,21,
"p,p'-ddd",C14H10Cl4,000072-54-8,ClC(Cl)C(c1ccc(Cl)cc1)c2ccc(Cl)cc2,sangster (1994) ,6.02,14,10,0,0,0,0,0,4,0,0,,18,
"p,p'-dde",C14H8Cl4,000072-55-9,Clc1ccc(cc1)C(=C(Cl)Cl)c2ccc(Cl)cc2,sangster (1993) ,6.51,14,8,0,0,0,0,0,4,0,0,,18,
7h-purin-6-amine,C5H5N5,066224-65-5,Nc1ncnc2nc[nH]c12,"lam,sp et al. (1989) ",-0.05,5,5,5,0,0,0,0,0,0,0,,10,
2-amino-3-methylpentanoic acid,C6H13N1O2,000073-32-5,CCC(C)C(N)C(O)=O,"hansch,c et al. (1995) ",-1.72,6,13,1,2,0,0,0,0,0,0,,9,
guanine,C5H5N5O1,000073-40-5,NC1=Nc2nc[nH]c2C(=O)N1,"hansch,c et al. (1995) ",-0.91,5,5,5,1,0,0,0,0,0,0,,11,
"1,1-dioxo-3-(phenylmethyl)-6-(trifluoromethyl)-3,4-dihydro-2h-benzo[e][1,2,4]thiadiazine-7-sulfonamide",C15H14F3N3O4S2,000073-48-3,N[S](=O)(=O)c1cc2c(NC(Cc3ccccc3)N[S]2(=O)=O)cc1C(F)(F)F,"berthod,a et al. (1999) ",1.89,15,14,3,4,2,0,3,0,0,0,,27,
4-chlorobenzoic acid,C7H5Cl1O2,000074-11-3,OC(=O)c1ccc(Cl)cc1,"hansch,c et al. (1995) ",2.65,7,5,0,2,0,0,0,1,0,0,,10,
arginine,C6H14N4O2,000074-79-3,N[C@@H](CCCNC(N)=N)C(O)=O,"hansch,c et al. (1995) ",-4.2,6,14,4,2,0,0,0,0,0,0,,12,
bromomethane,C1H3Br1,000074-83-9,CBr,"hansch,c et al. (1995) ",1.19,1,3,0,0,0,0,0,0,1,0,,2,
ethane,C2H6,000074-84-0,CC,"hansch,c et al. (1995) ",1.81,2,6,0,0,0,0,0,0,0,0,,2,
ethene,C2H4,000074-85-1,C=C,"hansch,c et al. (1995) ",1.13,2,4,0,0,0,0,0,0,0,0,,2,
acetylene,C2H2,000074-86-2,C#C,"hansch,c et al. (1995) ",0.37,2,2,0,0,0,0,0,0,0,0,,2,
"n-[(1r,2r)-1,3-dihydroxy-1-(4-nitrophenyl)propan-2-yl]acetamide",C1H3Cl1,000074-87-3,CC(=O)N[C@H](CO)[C@H](O)c1ccc(cc1)[N+]([O-])=O,"hansch,c et al. (1995) ",0.91,1,3,0,0,0,0,0,1,0,0,,2,
iodomethane,C1H3I1,000074-88-4,CI,"hansch,c et al. (1995) ",1.51,1,3,0,0,0,0,0,0,0,1,,2,
methanamine,C1H5N1,000074-89-5,CN,"hansch,c et al. (1995) ",-0.57,1,5,1,0,0,0,0,0,0,0,,2,
formonitrile,C1H1N1,000074-90-8,C#N,"hansch,c et al. (1995) ",-0.25,1,1,1,0,0,0,0,0,0,0,,2,
dibromomethane,C1H2Br2,000074-95-3,BrCBr,"martiska,a & bekarek,v (1990) ",1.7,1,2,0,0,0,0,0,0,2,0,,3,
bromoethane,C2H5Br1,000074-96-4,CCBr,"hansch,c et al. (1995) ",1.61,2,5,0,0,0,0,0,0,1,0,,3,
chlorobromomethane,C1H2Br1Cl1,000074-97-5,ClCBr,"hansch,c et al. (1995) ",1.41,1,2,0,0,0,0,0,1,1,0,,3,
propane,C3H8,000074-98-6,CCC,"hansch,c et al. (1995) ",2.36,3,8,0,0,0,0,0,0,0,0,,3,
prop-1-yne,C3H4,000074-99-7,CC#C,"hansch,c et al. (1995) ",0.94,3,4,0,0,0,0,0,0,0,0,,3,
chloroethane,C2H5Cl1,000075-00-3,CCCl,"hansch,c et al. (1995) ",1.43,2,5,0,0,0,0,0,1,0,0,,3,
iodoethane,C2H5I1,000075-03-6,CCI,"hansch,c et al. (1995) ",2,2,5,0,0,0,0,0,0,0,1,,3,
ethanamine,C2H7N1,000075-04-7,CCN,"hansch,c et al. (1995) ",-0.13,2,7,1,0,0,0,0,0,0,0,,3,
acetonitrile,C2H3N1,000075-05-8,CC#N,"hansch,c et al. (1995) ",-0.34,2,3,1,0,0,0,0,0,0,0,,3,
acetaldehyde,C2H4O1,000075-07-0,CC=O,tscats ,-0.34,2,4,0,1,0,0,0,0,0,0,,3,
dichloromethane,C1H2Cl2,000075-09-2,ClCCl,"hansch,c et al. (1995) ",1.25,1,2,0,0,0,0,0,2,0,0,,3,
difluoromethane,C1H2F2,000075-10-5,FCF,"hansch,c et al. (1995) ",0.2,1,2,0,0,0,0,2,0,0,0,,3,
diiodomethane,C1H2I2,000075-11-6,ICI,"hansch,c et al. (1995) ",2.3,1,2,0,0,0,0,0,0,0,2,,3,
formamide,C1H3N1O1,000075-12-7,NC=O,"hansch,c et al. (1995) ",-1.51,1,3,1,1,0,0,0,0,0,0,,3,
355120-85-3,C1S2,000075-15-0,S=C=S,"hansch,c et al. (1995) ",1.94,1,0,0,0,2,0,0,0,0,0,,3,
cyclopropane,C3H6,000075-19-4,C1CC1,"hansch,c et al. (1995) ",1.72,3,6,0,0,0,0,0,0,0,0,,3,
oxirane,C2H4O1,000075-21-8,C1CO1,"hansch,c et al. (1995) ",-0.3,2,4,0,1,0,0,0,0,0,0,,3,
bromoform,C1H1Br3,000075-25-2,BrC(Br)Br,chemicals inspection and testing institu (1992) ,2.4,1,1,0,0,0,0,0,0,3,0,,4,
2-bromopropane,C3H7Br1,000075-26-3,CC(C)Br,"hansch,c et al. (1995) ",2.14,3,7,0,0,0,0,0,0,1,0,,4,
bromodichloromethane,C1H1Br1Cl2,000075-27-4,ClC(Cl)Br,sangster (1994) ,2,1,1,0,0,0,0,0,2,1,0,,4,
2-methylpropane,C4H10,000075-28-5,CC(C)C,"hansch,c et al. (1995) ",2.76,4,10,0,0,0,0,0,0,0,0,,4,
2-chloropropane,C3H7Cl1,000075-29-6,CC(C)Cl,"hansch,c et al. (1995) ",1.9,3,7,0,0,0,0,0,1,0,0,,4,
2-iodopropane,C3H7I1,000075-30-9,CC(C)I,"hansch,c et al. (1995) ",2.89,3,7,0,0,0,0,0,0,0,1,,4,
propan-2-amine,C3H9N1,000075-31-0,CC(C)N,"hansch,c et al. (1995) ",0.26,3,9,1,0,0,0,0,0,0,0,,4,
"1,1-dichloroethane",C2H4Cl2,000075-34-3,CC(Cl)Cl,"hansch,c et al. (1995) ",1.79,2,4,0,0,0,0,0,2,0,0,,4,
"1,1-dichloroethene",C2H2Cl2,000075-35-4,ClC(Cl)=C,"hansch,c et al. (1995) ",2.13,2,2,0,0,0,0,0,2,0,0,,4,
"1,1-difluoroethane",C2H4F2,000075-37-6,CC(F)F,"hansch,c et al. (1995) ",0.75,2,4,0,0,0,0,2,0,0,0,,4,
"1,1-difluoroethene",C2H2F2,000075-38-7,FC(F)=C,"hansch,c et al. (1995) ",1.24,2,2,0,0,0,0,2,0,0,0,,4,
dichlorofluoromethane,C1H1Cl2F1,000075-43-4,FC(Cl)Cl,"hansch,c et al. (1995) ",1.55,1,1,0,0,0,0,1,2,0,0,,4,
chlorodifluoromethane,C1H1Cl1F2,000075-45-6,FC(F)Cl,"hansch,c et al. (1995) ",1.08,1,1,0,0,0,0,2,1,0,0,,4,
fluoroform,C1H1F3,000075-46-7,FC(F)F,"hansch,c et al. (1995) ",0.64,1,1,0,0,0,0,3,0,0,0,,4,
"n,n-dimethylmethanamine",C3H9N1,000075-50-3,CN(C)C,"hansch,c et al. (1995) ",0.16,3,9,1,0,0,0,0,0,0,0,,4,
"n,n-dihydroxymethanamine",C1H3N1O2,000075-52-5,CN(O)O,"hansch,c et al. (1995) ",-0.35,1,3,1,2,0,0,0,0,0,0,,4,
16033-71-9,C3H6O1,000075-56-9,CC1CO1,"hansch,c et al. (1995) ",0.03,3,6,0,1,0,0,0,0,0,0,,4,
bromo-trifluoromethane,C1Br1F3,000075-63-8,FC(F)(F)Br,"hansch,c et al. (1995) ",1.86,1,0,0,0,0,0,3,0,1,0,,5,
2-methylpropan-2-amine,C4H11N1,000075-64-9,CC(C)(C)N,"hansch,c et al. (1995) ",0.4,4,11,1,0,0,0,0,0,0,0,,5,
2-methylpropan-2-ol,C4H10O1,000075-65-0,CC(C)(C)O,"hansch,c et al. (1995) ",0.35,4,10,0,1,0,0,0,0,0,0,,5,
trichlorofluoromethane,C1Cl3F1,000075-69-4,FC(Cl)(Cl)Cl,"hansch,c et al. (1995) ",2.53,1,0,0,0,0,0,1,3,0,0,,5,
dichlorodifluoromethane,C1Cl2F2,000075-71-8,FC(F)(Cl)Cl,"hansch,c et al. (1995) ",2.16,1,0,0,0,0,0,2,2,0,0,,5,
chlorotrifluoromethane,C1Cl1F3,000075-72-9,FC(F)(F)Cl,"hansch,c et al. (1995) ",1.65,1,0,0,0,0,0,3,1,0,0,,5,
tetrafluoromethane,C1F4,000075-73-0,FC(F)(F)F,"hansch,c et al. (1995) ",1.18,1,0,0,0,0,0,4,0,0,0,,5,
"2,2,2-tribromoethanol",C2H3Br3O1,000075-80-9,OCC(Br)(Br)Br,"hansch,c et al. (1995) ",2.1,2,3,0,1,0,0,0,0,3,0,,6,
"2,2-dimethylbutane",C6H14,000075-83-2,CCC(C)(C)C,"hansch,c et al. (1995) ",3.82,6,14,0,0,0,0,0,0,0,0,,6,
"2,2-dimethylpropan-1-ol",C5H12O1,000075-84-3,CC(C)(C)CO,"hansch,c et al. (1995) ",1.31,5,12,0,1,0,0,0,0,0,0,,6,
2-methylbutan-2-ol,C5H12O1,000075-85-4,CCC(C)(C)O,"hansch,c et al. (1995) ",0.89,5,12,0,1,0,0,0,0,0,0,,6,
trichloroacetaldehyde,C2H1Cl3O1,000075-87-6,ClC(Cl)(Cl)C=O,"hansch,c et al. (1995) ",0.99,2,1,0,1,0,0,0,3,0,0,,6,
"2,2,2-trifluoroethanol",C2H3F3O1,000075-89-8,OCC(F)(F)F,"hansch,c et al. (1995) ",0.41,2,3,0,1,0,0,3,0,0,0,,6,
"3,3-dimethylbutan-2-one",C6H12O1,000075-97-8,CC(=O)C(C)(C)C,"hansch,c et al. (1995) ",1.2,6,12,0,1,0,0,0,0,0,0,,7,
"2,2-dimethylpropanoic acid",C5H10O2,000075-98-9,CC(C)(C)C(O)=O,chemicals inspection and testing institu (1992) ,1.48,5,10,0,2,0,0,0,0,0,0,,7,
dalapon,C3H4Cl2O2,000075-99-0,CC(Cl)(Cl)C(O)=O,"hansch,c et al. (1995) ",0.78,3,4,0,2,0,0,0,2,0,0,,7,
pentachloroethane,C2H1Cl5,000076-01-7,ClC(Cl)C(Cl)(Cl)Cl,"hansch,c et al. (1995) ",3.22,2,1,0,0,0,0,0,5,0,0,,7,
trichloroacetic acid,C2H1Cl3O2,000076-03-9,OC(=O)C(Cl)(Cl)Cl,"hansch,c et al. (1995) ",1.33,2,1,0,2,0,0,0,3,0,0,,7,
trichloronitromethane,C1Cl3N1O2,000076-06-2,[O-][N+](=O)C(Cl)(Cl)Cl,"hansch,c et al. (1995) ",2.09,1,0,1,2,0,0,0,3,0,0,,7,
"1,1,2-trichlorotrifluoroethane",C2Cl3F3,000076-13-1,FC(F)(Cl)C(F)(Cl)Cl,"hansch,c et al. (1995) ",3.16,2,0,0,0,0,0,3,3,0,0,,8,
"1,2-dichlorotetrafluoroethane",C2Cl2F4,000076-14-2,FC(F)(Cl)C(F)(F)Cl,"hansch,c et al. (1995) ",2.82,2,0,0,0,0,0,4,2,0,0,,8,
"1,1,1,2,2,2-hexafluoroethane",C2F6,000076-16-4,FC(F)(F)C(F)(F)F,"hansch,c et al. (1995) ",2,2,0,0,0,0,0,6,0,0,0,,8,
"1,7,7-trimethylbicyclo[2.2.1]heptan-2-one",C10H16O1,021368-68-3,CC1(C)C2CCC1(C)C(=O)C2,"griffin,s et al. (1999) ",2.74,10,16,0,1,0,0,0,0,0,0,,11,
triamcinolone acetonide,C24H31F1O6,000076-25-5,CC1(C)O[C@@H]2C[C@H]3[C@@H]4CCC5=CC(=O)C=C[C@]5(C)[C@@]4(F)[C@@H](O)C[C@]3(C)[C@@]2(O1)C(=O)CO,"hansch,c et al. (1995) ",2.53,24,31,0,6,0,0,1,0,0,0,,31,
methoxyflurane,C3H4Cl2F2O1,000076-38-0,COC(F)(F)C(Cl)Cl,"hansch,c et al. (1995) ",2.21,3,4,0,1,0,0,2,2,0,0,,8,
fluoxymesterone,C20H29F1O3,000076-43-7,C[C@]1(O)CC[C@H]2[C@@H]3CCC4=CC(=O)CC[C@]4(C)[C@@]3(F)[C@@H](O)C[C@]12C,"hansch,c et al. (1995) ",2.38,20,29,0,3,0,0,1,0,0,0,,24,
heptachlor isomer,C10H5Cl7,not,C12(Cl)C3C(Cl)C=CC3C(Cl)(C(Cl)=C1Cl)C2(Cl)Cl,"simpson,cd et al. (1995) ",5.47,10,5,0,0,0,0,0,7,0,0,,17,
"5-(1-cyclopent-2-enyl)-5-prop-2-enyl-1,3-diazinane-2,4,6-trione",C12H14N2O3,000076-68-6,C=CCC1(C2CCC=C2)C(=O)NC(=O)NC1=O,"hansch,c et al. (1995) ",1.51,12,14,2,3,0,0,0,0,0,0,,17,
"5-pentan-2-yl-5-prop-2-enyl-1,3-diazinane-2,4,6-trione",C12H18N2O3,000076-73-3,CCCC(C)C1(CC=C)C(=O)NC(=O)NC1=O,"hansch,c et al. (1995) ",1.97,12,18,2,3,0,0,0,0,0,0,,17,
"5-ethyl-5-propan-2-yl-1,3-diazinane-2,4,6-trione",C9H14N2O3,000076-76-6,CCC1(C(C)C)C(=O)NC(=O)NC1=O,"hansch,c et al. (1995) ",0.97,9,14,2,3,0,0,0,0,0,0,,14,
"benzene, 1,1',1''-(chloromethylidyne)tris-",C19H15Cl1,000076-83-5,ClC(c1ccccc1)(c2ccccc2)c3ccccc3,chemicals inspection and testing institu (1992) ,5.25,19,15,0,0,0,0,0,1,0,0,,20,
tri(phenyl)methanol,C19H16O1,000076-84-6,OC(c1ccccc1)(c2ccccc2)c3ccccc3,pomona (1987) ,3.68,19,16,0,1,0,0,0,0,0,0,,20,
"2-hydroxy-2,2-di(phenyl)acetic acid",C14H12O3,000076-93-7,OC(=O)C(O)(c1ccccc1)c2ccccc2,"hansch,c et al. (1995) ",2.3,14,12,0,3,0,0,0,0,0,0,,17,
"5-methyl-5-phenyl-1,3-diazinane-2,4,6-trione",C11H10N2O3,000076-94-8,CC1(C(=O)NC(=O)NC1=O)c2ccccc2,"prankerd,rj & mckeown,rh (1992) ",0.91,11,10,2,3,0,0,0,0,0,0,,16,
"6-dimethylamino-4,4-di(phenyl)heptan-3-one",C21H27N1O1,000076-99-3,CCC(=O)C(CC(C)N(C)C)(c1ccccc1)c2ccccc2,"hansch,c et al. (1995) ",3.93,21,27,1,1,0,0,0,0,0,0,,23,
"5-propan-2-yl-5-prop-2-enyl-1,3-diazinane-2,4,6-trione",C10H14N2O3,000077-02-1,CC(C)C1(CC=C)C(=O)NC(=O)NC1=O,"hansch,c et al. (1995) ",1.15,10,14,2,3,0,0,0,0,0,0,,15,
stk246875,C19H23O6,000077-06-5,CC12C(O)C=CC3(OC1=O)C4CCC5(O)CC4(CC5=C)C(C23)C(O)=O,"hansch,c et al. (1995) ",0.24,19,23,0,6,0,0,0,0,0,0,,25,
(-)-n-methylmorphinan-3-ol,C17H24N1O1,000125-73-5,CN1CC[C@]23CCCC[C@H]2[C@H]1Cc4ccc(O)cc34,sangster (1994) ,3.11,17,24,1,1,0,0,0,0,0,0,,19,
"3,3-bis(4-hydroxyphenyl)-2-benzofuran-1-one",C20H14O4,000077-09-8,Oc1ccc(cc1)C2(OC(=O)c3ccccc23)c4ccc(O)cc4,"hansch,c et al. (1995); ph 7.4 ",2.41,20,14,0,4,0,0,0,0,0,0,,24,
1-(1-phenylcyclohexyl)piperidine,C17H25N1,000077-10-1,C1CCN(CC1)C2(CCCCC2)c3ccccc3,sangster (1994); ion-corrected avg ,4.69,17,25,1,0,0,0,0,0,0,0,,18,
"(1,3-dimethyl-4-phenylpiperidin-4-yl) propanoate",C16H23N1O2,000077-20-3,CCC(=O)OC1(CCN(C)CC1C)c2ccccc2,"hansch,c et al. (1995) ",2.83,16,23,1,2,0,0,0,0,0,0,,19,
"3-ethyl-3-phenylpiperidine-2,6-dione",C13H15N1O2,000077-21-4,CCC1(CCC(=O)NC1=O)c2ccccc2,"hansch,c et al. (1995) ",1.9,13,15,1,2,0,0,0,0,0,0,,16,
"5-pentan-2-yl-5-prop-2-enyl-2-sulfanylidene-1,3-diazinane-4,6-dione",C12H18N2O2S1,000077-27-0,CCCC(C)C1(CC=C)C(=O)NC(=S)NC1=O,"hansch,c et al. (1995) ",3.23,12,18,2,2,1,0,0,0,0,0,,17,
"5-butyl-5-ethyl-1,3-diazinane-2,4,6-trione",C10H16N2O3,000077-28-1,CCCCC1(CC)C(=O)NC(=O)NC1=O,"hansch,c et al. (1995) ",1.73,10,16,2,3,0,0,0,0,0,0,,15,
"5-ethyl-5-hexyl-1,3-diazinane-2,4,6-trione",C12H20N2O3,000077-30-5,CCCCCCC1(CC)C(=O)NC(=O)NC1=O,"hansch,c et al. (1995) ",2.46,12,20,2,3,0,0,0,0,0,0,,17,
"5,5-diethyl-2-sulfanylidene-1,3-diazinane-4,6-dione",C8H12N2O2S1,000077-32-7,CCC1(CC)C(=O)NC(=S)NC1=O,"wong,o & mckeown,rh (1988) ",1.5,8,12,2,2,1,0,0,0,0,0,,13,
chlorthalidone,C14H11Cl1N2O4S1,000077-36-1,N[S](=O)(=O)c1cc(ccc1Cl)C2(O)NC(=O)c3ccccc23,"berthod,a et al. (1999) ",0.85,14,11,2,4,1,0,0,1,0,0,,22,
hexachlorocyclopentadiene,C5Cl6,000077-47-4,ClC1=C(Cl)C(Cl)(Cl)C(=C1Cl)Cl,"hansch,c et al. (1995) ",5.04,5,0,0,0,0,0,0,6,0,0,,11,
2-bromo-n-carbamoyl-2-ethylbutanamide,C7H13Br1N2O2,000077-65-6,CCC(Br)(CC)C(=O)NC(N)=O,"hansch,c et al. (1995) ",1.54,7,13,2,2,0,0,0,0,1,0,,12,
"3-ethyl-3-methylpyrrolidine-2,5-dione",C7H11N1O2,000077-67-8,CCC1(C)CC(=O)NC1=O,"atkinson,hc & berg,ej (1988) ",0.38,7,11,1,2,0,0,0,0,0,0,,10,
"5,5-dimethylimidazolidine-2,4-dione",C5H8N2O2,000077-71-4,CC1(C)NC(=O)NC1=O,"hansch,c et al. (1995) ",-0.48,5,8,2,2,0,0,0,0,0,0,,9,
(dimethylamino-ethoxyphosphoryl)formonitrile,C5H11N2O2P1,000077-81-6,CCO[P](=O)(C#N)N(C)C,"munro,nb et al. (1999) ",0.38,5,11,2,2,0,1,0,0,0,0,,10,
"2-hydroxypropane-1,2,3-tricarboxylic acid",C6H8O7,000077-92-9,OC(=O)CC(O)(CC(O)=O)C(O)=O,"avdeef,a (1997) ",-1.64,6,8,0,7,0,0,0,0,0,0,,13,
"2-ethyl-2-(hydroxymethyl)propane-1,3-diol",C6H14O3,000077-99-6,CCC(CO)(CO)CO,tscats ,-1.48,6,14,0,3,0,0,0,0,0,0,,9,
1-ethynylcyclohexan-1-ol,C8H12O1,000078-27-3,OC1(CCCCC1)C#C,"hansch,c et al. (1995) ",1.73,8,12,0,1,0,0,0,0,0,0,,9,
1-(ethoxy-ethylphosphoryl)oxyethane,C6H15O3P1,000078-38-6,CCO[P](=O)(CC)OCC,"krikorian,se et al. (1987) ",0.66,6,15,0,3,0,1,0,0,0,0,,10,
triethoxy-hydroxyphosphanium,C6H15O4P1,000078-40-0,CCO[P+](O)(OCC)OCC,"hansch,c et al. (1995) ",0.8,6,15,0,4,0,1,0,0,0,0,,11,
1-bis(butylsulfanyl)phosphorylsulfanylbutane,C12H27O1P1S3,000078-48-8,CCCCS[P](=O)(SCCCC)SCCCC,environ res lab (1981) ,5.7,12,27,0,1,3,1,0,0,0,0,,17,
tris(2-butoxyethyl) phosphate,C18H39O7P1,000078-51-3,CCCCOCCO[P](=O)(OCCOCCCC)OCCOCCCC,chemicals inspection and testing institu (1992) ,3.75,18,39,0,7,0,1,0,0,0,0,,26,
"3,5,5-trimethylcyclohex-2-en-1-one",C9H14O1,000078-59-1,CC1=CC(=O)CC(C)(C)C1,"veith,gd et al. (1980) ",1.7,9,14,0,1,0,0,0,0,0,0,,10,
2-(2-cyanopropan-2-yldiazenyl)-2-methylpropanenitrile,C8H12N4,000078-67-1,CC(C)(N=NC(C)(C)C#N)C#N,revised oecd hpv form 1 (1997) ,1.1,8,12,4,0,0,0,0,0,0,0,,12,
"3,7-dimethylocta-1,6-dien-3-ol",C10H18O1,000078-70-6,CC(C)=CCCC(C)(O)C=C,"li,j & perdue,em (1995) ",2.97,10,18,0,1,0,0,0,0,0,0,,11,
"2-methylbuta-1,3-diene",C5H8,000078-79-5,CC(=C)C=C,chemicals inspection and testing institu (1992) ,2.42,5,8,0,0,0,0,0,0,0,0,,5,
2-methylpropan-1-amine,C4H11N1,000078-81-9,CC(C)CN,"hansch,c et al. (1995) ",0.73,4,11,1,0,0,0,0,0,0,0,,5,
2-methylpropanenitrile,C4H7N1,000078-82-0,CC(C)C#N,"tanii,h & hashimoto,k (1984) ",0.46,4,7,1,0,0,0,0,0,0,0,,5,
2-methylpropan-1-ol,C4H10O1,000078-83-1,CC(C)CO,"hansch,c et al. (1995) ",0.76,4,10,0,1,0,0,0,0,0,0,,5,
2-chlorobutane,C4H9Cl1,000078-86-4,CCC(C)Cl,"hansch,c et al. (1995) ",2.33,4,9,0,0,0,0,0,1,0,0,,5,
"1,2-dichloropropane",C3H6Cl2,000078-87-5,CC(Cl)CCl,sangster (1994) ,1.98,3,6,0,0,0,0,0,2,0,0,,5,
butan-2-ol,C4H10O1,000078-92-2,CCC(C)O,"hansch,c et al. (1995) ",0.61,4,10,0,1,0,0,0,0,0,0,,5,
butan-2-one,C4H8O1,000078-93-3,CCC(C)=O,"hansch,c et al. (1995) ",0.29,4,8,0,1,0,0,0,0,0,0,,5,
1-aminopropan-2-ol,C3H9N1O1,000078-96-6,CC(O)CN,"hansch,c et al. (1995) ",-0.96,3,9,1,1,0,0,0,0,0,0,,5,
2-hydroxypropanenitrile,C3H5N1O1,000078-97-7,CC(O)C#N,"tanii,h & hashimoto,k (1985) ",-0.94,3,5,1,1,0,0,0,0,0,0,,5,
"1,1,2-trichloroethane",C2H3Cl3,000079-00-5,ClCC(Cl)Cl,"hansch,c et al. (1995) ",1.89,2,3,0,0,0,0,0,3,0,0,,5,
trichloroethene,C2H1Cl3,000079-01-6,ClC=C(Cl)Cl,"hansch,c et al. (1995) ",2.42,2,1,0,0,0,0,0,3,0,0,,5,
propanamide,C3H7N1O1,000079-05-0,CCC(N)=O,"hansch,c et al. (1995) ",-0.66,3,7,1,1,0,0,0,0,0,0,,5,
prop-2-enamide,C3H5N1O1,000079-06-1,NC(=O)C=C,"hansch,c et al. (1995) ",-0.67,3,5,1,1,0,0,0,0,0,0,,5,
chloroacetamide,C2H4Cl1N1O1,000079-07-2,NC(=O)CCl,"hansch,c et al. (1995) ",-0.53,2,4,1,1,0,0,0,1,0,0,,5,
2-bromoacetic acid,C2H3Br1O2,000079-08-3,OC(=O)CBr,"hansch,c et al. (1995) ",0.41,2,3,0,2,0,0,0,0,1,0,,5,
propanoic acid,C3H6O2,000079-09-4,CCC(O)=O,"hansch,c et al. (1995) ",0.33,3,6,0,2,0,0,0,0,0,0,,5,
prop-2-enoic acid,C3H4O2,000079-10-7,OC(=O)C=C,"hansch,c et al. (1995) ",0.35,3,4,0,2,0,0,0,0,0,0,,5,
chloroacetic acid,C2H3Cl1O2,000079-11-8,OC(=O)CCl,"hansch,c et al. (1995) ",0.22,2,3,0,2,0,0,0,1,0,0,,5,
2-hydroxyacetic acid,C2H4O3,000079-14-1,OCC(O)=O,"hansch,c et al. (1995) ",-1.11,2,4,0,3,0,0,0,0,0,0,,5,
n-methylacetamide,C3H7N1O1,000079-16-3,CNC(C)=O,"hansch,c et al. (1995) ",-1.05,3,7,1,1,0,0,0,0,0,0,,5,
methyl acetate,C3H6O2,000079-20-9,COC(C)=O,"hansch,c et al. (1995) ",0.18,3,6,0,2,0,0,0,0,0,0,,5,
ethyl-dihydroxyazanium,C2H5N1O2,000079-24-3,CC[NH+](O)O,"hansch,c et al. (1995) ",0.18,2,5,1,2,0,0,0,0,0,0,,5,
"2,3-dimethylbutane",C6H14,000079-29-8,CC(C)C(C)C,"hansch,c et al. (1995) ",3.42,6,14,0,0,0,0,0,0,0,0,,6,
2-methylpropanoic acid,C4H8O2,000079-31-2,CC(C)C(O)=O,sangster (1993) ,0.94,4,8,0,2,0,0,0,0,0,0,,6,
"1,1,2,2-tetrachloroethane",C2H2Cl4,000079-34-5,ClC(Cl)C(Cl)Cl,"hansch,c et al. (1995) ",2.39,2,2,0,0,0,0,0,4,0,0,,6,
2-methylprop-2-enamide,C4H7N1O1,000079-39-0,CC(=C)C(N)=O,"rorije,e et al. (1997) ",-1.11,4,7,1,1,0,0,0,0,0,0,,6,
2-methylprop-2-enoic acid,C4H6O2,000079-41-4,CC(=C)C(O)=O,"hansch,c et al. (1995) ",0.93,4,6,0,2,0,0,0,0,0,0,,6,
dichloroacetic acid,C2H2Cl2O2,000079-43-6,OC(=O)C(Cl)Cl,"hansch,c et al. (1995) ",0.92,2,2,0,2,0,0,0,2,0,0,,6,
2-nitropropane,C3H7N1O2,000079-46-9,CC(C)[N+]([O-])=O,chemicals inspection and testing institu (1992) ,0.93,3,7,1,2,0,0,0,0,0,0,,6,
4-[2-(4-hydroxyphenyl)propan-2-yl]phenol,C15H16O2,000080-05-7,CC(C)(c1ccc(O)cc1)c2ccc(O)cc2,"hansch,c et al. (1995) ",3.32,15,16,0,2,0,0,0,0,0,0,,17,
4-(4-aminophenyl)sulfonylaniline,C12H12N2O2S1,000080-08-0,Nc1ccc(cc1)[S](=O)(=O)c2ccc(N)cc2,"hansch,c et al. (1995) ",0.97,12,12,2,2,1,0,0,0,0,0,,17,
"n,4-dimethyl-n-nitrosobenzenesulfonamide",C8H10N2O3S1,000080-11-5,CN(N=O)[S](=O)(=O)c1ccc(C)cc1,"hansch,c et al. (1995) ",0.58,8,10,2,3,1,0,0,0,0,0,,14,
benzenesulfonohydrazide,C6H8N2O2S1,000080-17-1,NN[S](=O)(=O)c1ccccc1,"hansch,c et al. (1995) ",-0.14,6,8,2,2,1,0,0,0,0,0,,11,