Names,Formula,CAS No,SMILES,Reference,Exp logp,C,H,N,O,S,P,F,Cl,Br,I,,,
"2-phenyl-1,3-benzothiazole",C13H9N1S1,000883-93-2,s1c2ccccc2nc1c3ccccc3,"hansch,c et al. (1995) ",4.26,13,9,1,0,1,0,0,0,0,0,,15,
"n-tert-butyl-n'-ethyl-6-methylsulfanyl-1,3,5-triazine-2,4-diamine",C10H19N5S1,000886-50-0,CCNc1nc(NC(C)(C)C)nc(SC)n1,"hansch,c et al. (1995) ",3.74,10,19,5,0,1,0,0,0,0,0,,16,
3-methylhydrochlorothiazide,C8H10Cl1N3O4S2,000890-67-5,CC1NS(=O)(=O)c2c(cc(Cl)c(S(=O)(=O)N)c2)N1,"hansch,c et al. (1995) ",0.08,8,10,3,4,2,0,0,1,0,0,,18,
"benzamide, 4-amino-3-chloro-n-[2-(diethylamino)e",C13H20Cl1N3O1,000891-60-1,CCN(CC)CCNC(=O)c1cc(Cl)c(N)cc1,"van damme,m et al. (1984) ",1.7,13,20,3,1,0,0,0,1,0,0,,18,
5chloro5deoxyadenosine,C10H12Cl1N5O3,not,C(Cl)C1OC(n2c3ncnc(N)c3nc2)C(O)C1O,biobyte (1995) ,-0.06,10,12,5,3,0,0,0,1,0,0,,19,
1-dimethoxyphosphorylsulfanyl-2-ethylsulfanylethane,C6H15O3P1S2,000919-86-8,CCSCCS[P](=O)(OC)OC,"hansch,c et al. (1995) ",1.02,6,15,0,3,2,1,0,0,0,0,,12,
"1,1,1,3,3,3-hexafluoropropan-2-ol",C3H2F6O1,000920-66-1,OC(C(F)(F)F)C(F)(F)F,pomona (1987) ,1.66,3,2,0,1,0,0,6,0,0,0,,10,
2-methylidenebutanal,C5H8O1,000922-63-4,CCC(=C)C=O,"hansch,c et al. (1995) ",1.24,5,8,0,1,0,0,0,0,0,0,,6,
2-hydroxypropyl 2-methylprop-2-enoate,C7H12O3,000923-26-2,CC(O)COC(=O)C(C)=C,"hansch,c et al. (1995) ",0.97,7,12,0,3,0,0,0,0,0,0,,10,
tripropyl phosphite,C9H21O3P1,000923-99-9,CCCOP(OCCC)OCCC,"hansch,c et al. (1995) ",2.26,9,21,0,3,0,1,0,0,0,0,,13,
"n,n-dibutylnitrous amide",C8H18N2O1,000924-16-3,CCCCN(CCCC)N=O,"hansch,c et al. (1995) ",2.63,8,18,2,1,0,0,0,0,0,0,,11,
n-methyl-n-propylnitrous amide,C4H10N2O1,000924-46-9,CCCN(C)N=O,"vera,a et al. (1992) ",0.56,4,10,2,1,0,0,0,0,0,0,,7,
dipropyl butanedioate,C10H18O4,000925-15-5,CCCOC(=O)CCC(=O)OCCC,"funasaki,n et al. (1984) ",2.16,10,18,0,4,0,0,0,0,0,0,,14,
methyl 4-hydroxybutanoate,C5H10O3,000925-57-5,COC(=O)CCCO,"hansch,c et al. (1995) ",-0.06,5,10,0,3,0,0,0,0,0,0,,8,
n-(2-dimethylaminoethyl)prop-2-enamide,C7H14N2O1,000925-76-8,CN(C)CCNC(=O)C=C,"chiari,m et al. (1991) ",-0.25,7,14,2,1,0,0,0,0,0,0,,10,
"n,n-dimethylbutan-1-amine",C6H15N1,000927-62-8,CCCCN(C)C,"hansch,c et al. (1995) ",1.7,6,15,1,0,0,0,0,0,0,0,,7,
2-bromoethyl acetate,C4H7Br1O2,000927-68-4,CC(=O)OCCBr,"hansch,c et al. (1995) ",1.11,4,7,0,2,0,0,0,0,1,0,,7,
"1-butanol, 4-chloro-",C4H9Cl1O1,000928-51-8,OCCCCCl,"hansch,c et al. (1995) ",0.85,4,9,0,1,0,0,0,1,0,0,,6,
7-aminoheptanoic acid,C7H15N1O2,000929-17-9,NCCCCCCC(O)=O,"tsai,rs et al. (1991) ",-3.03,7,15,1,2,0,0,0,0,0,0,,10,
methyl docosanoate,C23H46O2,000929-77-1,CCCCCCCCCCCCCCCCCCCCCC(=O)OC,"krop,hb et al. (1997) ",10.2,23,46,0,2,0,0,0,0,0,0,,25,
1-methylpyrazole,C4H6N2,000930-36-9,Cn1cccn1,"hansch,c et al. (1995) ",0.23,4,6,2,0,0,0,0,0,0,0,,6,
1-nitrosopyrrolidine,C4H8N2O1,000930-55-2,O=NN1CCCC1,"hansch,c et al. (1995) ",-0.19,4,8,2,1,0,0,0,0,0,0,,7,
cyclohex-2-en-1-one,C6H8O1,000930-68-7,O=C1CCCC=C1,"hansch,c et al. (1995) ",0.61,6,8,0,1,0,0,0,0,0,0,,7,
2-methoxypyrimidine,C5H6N2O1,000931-63-5,COc1ncccn1,pomona (1987) ,0.23,5,6,2,1,0,0,0,0,0,0,,8,
1-acetylpyrrolidin-2-one,C6H9N1O2,000932-17-2,CC(=O)N1CCCC1=O,sangster (1994) ,-0.05,6,9,1,2,0,0,0,0,0,0,,9,
1-nitrosoazepane,C6H12N2O1,000932-83-2,O=NN1CCCCCC1,"hansch,c et al. (1995) ",0.92,6,12,2,1,0,0,0,0,0,0,,9,
7-methyl-1h-indole,C9H9N1,016096-32-5,Cc1cccc2cc[nH]c12,"ritter,s et al. (1995) ",2.54,9,9,1,0,0,0,0,0,0,0,,10,
"2,3,6-trichlorophenol",C6H3Cl3O1,000933-75-5,Oc1c(Cl)ccc(Cl)c1Cl,"hansch,c et al. (1995) ",3.77,6,3,0,1,0,0,0,3,0,0,,10,
"2,3,5-trichlorophenol",C6H3Cl3O1,000933-78-8,Oc1cc(Cl)cc(Cl)c1Cl,"hansch,c et al. (1995) ",3.84,6,3,0,1,0,0,0,3,0,0,,10,
5-bromo-1-methyl-4-nitroimidazole,C4H4Br1N3O2,000933-87-9,Cn1cnc(c1Br)[N+]([O-])=O,"suwinski,j et al. (1985) ",0.36,4,4,3,2,0,0,0,0,1,0,,10,
3-hydroxypyridine-2-carboxamide,C6H6N2O2,000933-90-4,NC(=O)c1ncccc1O,pomona (1987) ,0.65,6,6,2,2,0,0,0,0,0,0,,10,
"1-ethyl-2,3-dimethylbenzene",C10H14,000933-98-2,CCc1cccc(C)c1C,"sherblom,pm & eganhouse,rp (1988) ",4.34,10,14,0,0,0,0,0,0,0,0,,10,
1h-benzimidazol-2-amine,C7H7N3,000934-32-7,Nc1[nH]c2ccccc2n1,"hansch,c et al. (1995) ",0.91,7,7,3,0,0,0,0,0,0,0,,10,
"1-ethyl-3,5-dimethylbenzene",C10H14,000934-74-7,CCc1cc(C)cc(C)c1,"sherblom,pm & eganhouse,rp (1988) ",4.55,10,14,0,0,0,0,0,0,0,0,,10,
"4-ethyl-1,2-dimethylbenzene",C10H14,000934-80-5,CCc1ccc(C)c(C)c1,"sherblom,pm & eganhouse,rp (1988) ",4.5,10,14,0,0,0,0,0,0,0,0,,10,
s-phenyl ethanethioate,C8H8O1S1,000934-87-2,CC(=O)Sc1ccccc1,"hansch,c et al. (1995) ",2.23,8,8,0,1,1,0,0,0,0,0,,10,
azonan-2-one,C8H15N1O1,000935-30-8,O=C1CCCCCCCN1,"hansch,c et al. (1995) ",0.67,8,15,1,1,0,0,0,0,0,0,,10,
"2,3,5-trimethylcyclohexa-2,5-diene-1,4-dione",C9H10O2,000935-92-2,CC1=CC(=O)C(=C(C)C1=O)C,"rich,pr (1990) ",1.82,9,10,0,2,0,0,0,0,0,0,,11,
"2,3,5,6-tetrachlorophenol",C6H2Cl4O1,000935-95-5,Oc1c(Cl)c(Cl)cc(Cl)c1Cl,"hansch,c et al. (1995) ",3.88,6,2,0,1,0,0,0,4,0,0,,11,
2-hydroxybenzohydrazide,C7H8N2O2,000936-02-7,NNC(=O)c1ccccc1O,"hansch,c et al. (1995) ",0.6,7,8,2,2,0,0,0,0,0,0,,11,
(2-phenylcyclopropyl)methanol,C10H12O1,000936-98-1,OCC1CC1c2ccccc2,"hansch,c et al. (1995) ",1.95,10,12,0,1,0,0,0,0,0,0,,11,
n-methyl-n-(phenylmethyl)nitrous amide,C8H10N2O1,000937-40-6,CN(Cc1ccccc1)N=O,"singer,gm et al. (1986) ",1.55,8,10,2,1,0,0,0,0,0,0,,11,
phenyl prop-2-enoate,C9H8O2,000937-41-7,C=CC(=O)Oc1ccccc1,biobyte starlist (2009) ,1.94,9,8,0,2,0,0,0,0,0,0,,11,
"2,2-dimethyl-1-phenylpropan-1-one",C11H14O1,000938-16-9,CC(C)(C)C(=O)c1ccccc1,"hansch,c et al. (1995) ",3,11,14,0,1,0,0,0,0,0,0,,12,
"2,3,4,6-tetrachloroanisole",C7H4Cl4O1,000938-22-7,COc1c(Cl)cc(Cl)c(Cl)c1Cl,"opperhuizen,a et al. (1987) ",4.75,7,4,0,1,0,0,0,4,0,0,,12,
8-methoxyquinoline,C10H9N1O1,000938-33-0,COc1cccc2cccnc12,"hansch,c et al. (1995) ",1.84,10,9,1,1,0,0,0,0,0,0,,12,
2-(benzotriazol-1-yl)ethanol,C8H9N3O1,000938-56-7,OCCn1nnc2ccccc12,"hansch,c et al. (1995) ",0.5,8,9,3,1,0,0,0,0,0,0,,12,
"2,3,4,5-tetrachloroanisole",C7H4Cl4O1,000938-86-3,COc1cc(Cl)c(Cl)c(Cl)c1Cl,"opperhuizen,a & voors,pi (1987) ",4.51,7,4,0,1,0,0,0,4,0,0,,12,
"1,3-dimethyl-1-phenylurea",C9H12N2O1,000938-91-0,CNC(=O)N(C)c1ccccc1,"hansch,c et al. (1995) ",1.02,9,12,2,1,0,0,0,0,0,0,,12,
4-phenylpyridine,C11H9N1,000939-23-1,c1ccc(cc1)c2ccncc2,"hansch,c et al. (1995) ",2.59,11,9,1,0,0,0,0,0,0,0,,12,
2-ethylnaphthalene,C12H12,000939-27-5,CCc1ccc2ccccc2c1,"hansch,c et al. (1995) ",4.38,12,12,0,0,0,0,0,0,0,0,,12,
propan-2-yl benzoate,C10H12O2,000939-48-0,CC(C)OC(=O)c1ccccc1,pomona (1987) ,3.18,10,12,0,2,0,0,0,0,0,0,,12,
"carbamic acid, (4-chlorophenyl)-, methyl ester",C8H8Cl1N1O2,000940-36-3,COC(=O)Nc1ccc(Cl)cc1,"takahashi,k et al. (1988) ",2.55,8,8,1,2,0,0,0,1,0,0,,12,
n-methyl-3-phenylpropanamide,C10H13N1O1,000940-43-2,CNC(=O)CCc1ccccc1,"radzicka,a & wolfenden,r (1988) ",1.17,10,13,1,1,0,0,0,0,0,0,,12,
2-(4-methylphenoxy)acetic acid,C9H10O3,000940-64-7,Cc1ccc(OCC(O)=O)cc1,"hansch,c et al. (1995) ",1.86,9,10,0,3,0,0,0,0,0,0,,12,
"1-phenylpyrrole-2,5-dione",C10H7N1O2,000941-69-5,O=C1C=CC(=O)N1c2ccccc2,"hansch,c et al. (1995) ",1.09,10,7,1,2,0,0,0,0,0,0,,13,
methyl 1h-indole-3-carboxylate,C10H9N1O2,000942-24-5,COC(=O)c1c[nH]c2ccccc12,"yamagami,c et al. (1992) ",2.57,10,9,1,2,0,0,0,0,0,0,,13,
(2-cyanophenyl) n-methylcarbamate,C9H8N2O2,000942-79-0,CNC(=O)Oc1ccccc1C#N,"hansch,c et al. (1995) ",0.86,9,8,2,2,0,0,0,0,0,0,,13,
(3-cyanophenyl) n-methylcarbamate,C9H8N2O2,000943-49-7,CNC(=O)Oc1cccc(c1)C#N,"hansch,c et al. (1995) ",0.97,9,8,2,2,0,0,0,0,0,0,,13,
"3-buten-2-one, 4-(4-methoxyphenyl)-",C11H12O2,000943-88-4,COc1ccc(C=CC(C)=O)cc1,"yamagami,c et al. (1998) ",2.25,11,12,0,2,0,0,0,0,0,0,,13,
(ethoxy-ethylphosphoryl)sulfanylbenzene,C10H15O2P1S1,000944-21-8,CCO[P](=O)(CC)Sc1ccccc1,"hansch,c et al. (1995) ",2.11,10,15,0,2,1,1,0,0,0,0,,14,
ethoxy-ethyl-phenylsulfanyl-sulfanylidenephosphorane,C10H15O1P1S2,000944-22-9,CCO[P](=S)(CC)Sc1ccccc1,"hansch,c et al. (1995) ",3.94,10,15,0,1,2,1,0,0,0,0,,14,
"benzene, 1,2,3,4-tetrachloro-5,6-dimethoxy-",C8H6Cl4O2,000944-61-6,COc1c(Cl)c(Cl)c(Cl)c(Cl)c1OC,"lun,r et al. (1995) ",4.86,8,6,0,2,0,0,0,4,0,0,,14,
phenylsulfinylbenzene,C12H10O1S1,000945-51-7,O=[S](c1ccccc1)c2ccccc2,"hansch,c et al. (1995) ",2.06,12,10,0,1,1,0,0,0,0,0,,14,
phenoxymethylbenzene,C13H12O1,000946-80-5,C(Oc1ccccc1)c2ccccc2,"hansch,c et al. (1995) ",3.79,13,12,0,1,0,0,0,0,0,0,,14,
1-azacyclotridecan-2-one,C12H23N1O1,000947-04-6,O=C1CCCCCCCCCCCN1,chemicals inspection and testing institu (1992) ,2.92,12,23,1,1,0,0,0,0,0,0,,14,
phenanthren-9-amine,C14H11N1,000947-73-9,Nc1cc2ccccc2c3ccccc13,"debnath,ak et al. (1992) ",3.56,14,11,1,0,0,0,0,0,0,0,,15,
2-phenylbenzoic acid,C13H10O2,000947-84-2,OC(=O)c1ccccc1c2ccccc2,pomona (1987) ,2.89,13,10,0,2,0,0,0,0,0,0,,15,
ethyl 2-amino-3-(4-hydroxyphenyl)propanoate,C11H15N1O3,000949-67-7,CCOC(=O)C(N)Cc1ccc(O)cc1,"huang,ch et al. (1985) ",0.72,11,15,1,3,0,0,0,0,0,0,,15,
"n-diethoxyphosphoryl-4-methyl-1,3-dithiolan-2-imine",C8H16N1O3P1S2,000950-10-7,CCO[P](=O)(OCC)N=C1SCC(C)S1,"hansch,c et al. (1995) ",1.04,8,16,1,3,2,1,0,0,0,0,,15,
dimethyl (4-nitrophenyl) phosphate,C8H10N1O6P1,000950-35-6,CO[P](=O)(OC)Oc1ccc(cc1)[N+]([O-])=O,"hansch,c et al. (1995) ",1.33,8,10,1,6,0,1,0,0,0,0,,16,
"3-(dimethoxyphosphinothioylsulfanylmethyl)-5-methoxy-1,3,4-thiadiazol-2-one",C6H11N2O4P1S3,000950-37-8,COC1=NN(CS[P](=S)(OC)OC)C(=O)S1,"tomlin,c (1997) ",2.2,6,11,2,4,3,1,0,0,0,0,,16,
4-amino-1-[4-hydroxy-5-(hydroxymethyl)oxolan-2-yl]pyrimidin-2-one,C9H13N3O4,000951-77-9,NC1=NC(=O)N(C=C1)C2CC(O)C(CO)O2,"hansch,c et al. (1995) ",-1.77,9,13,3,4,0,0,0,0,0,0,,16,
"1-[4-hydroxy-5-(hydroxymethyl)oxolan-2-yl]pyrimidine-2,4-dione",C9H12N2O5,000951-78-0,OCC1OC(CC1O)N2C=CC(=O)NC2=O,"balzarini,jm et al. (1989) ",-1.51,9,12,2,5,0,0,0,0,0,0,,16,
"2-(4-methylphenyl)-imidazo[4,5-b]pyridine",C13H11N3,000952-12-5,Cc1ccc(cc1)c2[nH]c3cccnc3n2,"ertepinar,h et al. (1995) ",3.02,13,11,3,0,0,0,0,0,0,0,,16,
"2-(4-chlorophenyl)-imidazo[4,5-b]pyridine",C12H8Cl1N3,000952-13-6,Clc1ccc(cc1)c2[nH]c3cccnc3n2,"ertepinar,h et al. (1995) ",2.95,12,8,3,0,0,0,0,1,0,0,,16,
"2-(4-fluorophenyl)-imidazo[4,5-b]pyridine",C12H8F1N3,000952-14-7,Fc1ccc(cc1)c2[nH]c3cccnc3n2,"ertepinar,h et al. (1995) ",2.52,12,8,3,0,0,0,1,0,0,0,,16,
carbophenothion-methyl,C9H12Cl1O2P1S3,000953-17-3,COP(=S)(SCSc1ccc(Cl)cc1)OC,"hansch,c et al. (1995) ",4.82,9,12,0,2,3,1,0,1,0,0,,16,
5-(6-aminopurin-9-yl)-2-(hydroxymethyl)oxolan-3-ol,C10H13N5O3,000958-09-8,Nc1ncnc2n(cnc12)C3CC(O)C(CO)O3,"hansch,c et al. (1995) ",-0.55,10,13,5,3,0,0,0,0,0,0,,18,
tetrachlorvinphos,C10H9Cl4O4P1,022248-79-9,CO[P](=O)(OC)OC(=C/Cl)/c1cc(Cl)c(Cl)cc1Cl,"hansch,c et al. (1995) ",3.53,10,9,0,4,0,1,0,4,0,0,,19,
"3-(dimethoxyphosphorylsulfanylmethyl)-1,2,3-benzotriazin-4-one",C10H12N3O4P1S1,000961-22-8,CO[P](=O)(OC)SCN1N=Nc2ccccc2C1=O,"hansch,c et al. (1995) ",0.78,10,12,3,4,1,1,0,0,0,0,,19,
diethyl (6-methyl-2-propan-2-ylpyrimidin-4-yl) phosphate,C12H21N2O4P1,000962-58-3,CCO[P](=O)(OCC)Oc1cc(C)nc(n1)C(C)C,"hansch,c et al. (1995) ",2.07,12,21,2,4,0,1,0,0,0,0,,19,
3-(4-acetylphenyl)sulfonyl-1-cyclohexylurea,C15H20N2O4S1,000968-81-0,CC(=O)c1ccc(cc1)[S](=O)(=O)NC(=O)NC2CCCCC2,sangster (1993) ,2.44,15,20,2,4,1,0,0,0,0,0,,22,
"6,7-dihydrocanrenone",C22H30O3,000976-70-5,CC12C5(C)C(C4C(CC5)C3(OC(=O)CC3)CC4)CCC1=CC(=O)CC2,"hansch,c et al. (1995) ",2.98,22,30,0,3,0,0,0,0,0,0,,25,
"10,13-dimethylspiro[2,8,9,11,12,14,15,16-octahydro-1h-cyclopenta[a]phenanthrene-17,5'-oxolane]-2',3-dione",C22H28O3,000976-71-6,CC12CCC(=O)C=C1C=CC3C2CCC4(C)C3CCC45CCC(=O)O5,"hansch,c et al. (1995) ",2.68,22,28,0,3,0,0,0,0,0,0,,25,
clopenthixol,C22H25Cl1N2O1S1,000982-24-1,C1(=CCCN3CCN(CCO)CC3)c4ccccc4Sc2ccc(Cl)cc12,"hansch,c et al. (1995) ",4.18,22,25,2,1,1,0,0,1,0,0,,27,
"[2-(9-fluoro-11,17-dihydroxy-10,13,16-trimethyl-3-oxo-6,7,8,11,12,14,15,16-octahydrocyclopenta[a]phenanthren-17-yl)-2-oxoethyl] acetate",C24H31F1O6,001177-87-3,CC1CC2C3CCC4=CC(=O)C=CC4(C)C3(F)C(O)CC2(C)C1(O)C(=O)COC(C)=O,"hansch,c et al. (1995) ",2.91,24,31,0,6,0,0,1,0,0,0,,31,
"n,n-bis(2-methylpropyl)nitrous amide",C8H18N2O1,000997-95-5,CC(C)CN(CC(C)C)N=O,"vera,a et al. (1992) ",2.34,8,18,2,1,0,0,0,0,0,0,,11,
ethyl 4-hydroxybutanoate,C6H12O3,000999-10-0,CCOC(=O)CCCO,sangster (1994) ,0.43,6,12,0,3,0,0,0,0,0,0,,9,
2-hydroxypropyl prop-2-enoate,C6H10O3,000999-61-1,CC(O)COC(=O)C=C,"hansch,c et al. (1995) ",0.35,6,10,0,3,0,0,0,0,0,0,,9,
1-(methyl-pentoxyphosphoryl)oxypentane,C11H25O3P1,001000-36-8,CCCCCO[P](C)(=O)OCCCCC,"krikorian,se et al. (1987) ",3.74,11,25,0,3,0,1,0,0,0,0,,15,
8-aminooctanoic acid,C8H17N1O2,001002-57-9,NCCCCCCCC(O)=O,"tsai,rs et al. (1991) ",-2.55,8,17,1,2,0,0,0,0,0,0,,11,
2-bromothiophene,C4H3Br1S1,001003-09-4,Brc1sccc1,"hansch,c et al. (1995) ",2.75,4,3,0,0,1,0,0,0,1,0,,6,
1h-pyrrole-2-carbaldehyde,C5H5N1O1,001003-29-8,O=Cc1[nH]ccc1,"hansch,c et al. (1995) ",0.64,5,5,1,1,0,0,0,0,0,0,,7,
thiophene-2-carbonitrile,C5H3N1S1,001003-31-2,N#Cc1sccc1,"hansch,c et al. (1995) ",1.27,5,3,1,0,1,0,0,0,0,0,,7,
"2,6-dimethylpyran-4-one",C7H8O2,001004-36-0,CC1=CC(=O)C=C(C)O1,"hansch,c et al. (1995) ",0.1,7,8,0,2,0,0,0,0,0,0,,9,
"2-methoxy-1,3-dimethylbenzene",C9H12O1,001004-66-6,COc1c(C)cccc1C,"hansch,c et al. (1995) ",3.02,9,12,0,1,0,0,0,0,0,0,,10,
"2,6-diethylphenol",C10H14O1,001006-59-3,CCc1cccc(CC)c1O,"sotomatsu,t et al. (1993) ",3.03,10,14,0,1,0,0,0,0,0,0,,11,
2-phenylpyrrolidine,C10H13N1,001006-64-0,C1CNC(C1)c2ccccc2,sangster (1993) ,1.89,10,13,1,0,0,0,0,0,0,0,,11,
5-methoxy-1h-indole,C9H9N1O1,001006-94-6,COc1ccc2[nH]ccc2c1,"hansch,c et al. (1995) ",2.06,9,9,1,1,0,0,0,0,0,0,,11,
desisopropylatrazine,C5H8Cl1N5,001007-28-9,CCNc1nc(Cl)nc(N)n1,"finizio,a et al. (1991) ",1.15,5,8,5,0,0,0,0,1,0,0,,11,
3-methyl-1-phenylurea,C8H10N2O1,001007-36-9,CNC(=O)Nc1ccccc1,"hansch,c et al. (1995) ",1.12,8,10,2,1,0,0,0,0,0,0,,11,
2-phenylpyridine,C11H9N1,001008-89-5,c1ccc(cc1)c2ccccn2,"hansch,c et al. (1995) ",2.63,11,9,1,0,0,0,0,0,0,0,,12,
"benzamide,n-(2-aminoethyl)",C9H12N2O1,001009-17-2,O=C(c1ccccc1)NCCN,"hansch,c et al. (1995) ",0.06,9,12,2,1,0,0,0,0,0,0,,12,
1-(4-acetylphenyl)ethanone,C10H10O2,001009-61-6,CC(=O)c1ccc(cc1)C(C)=O,"hansch,c et al. (1995) ",1.34,10,10,0,2,0,0,0,0,0,0,,12,
"2-chloro-1,4-naphthoquinone",C10H5Cl1O2,001010-60-2,ClC1=CC(=O)c2ccccc2C1=O,"hansch,c et al. (1995) ",2.29,10,5,0,2,0,0,0,1,0,0,,13,
"2-propenoic acid, 3-(2-methoxyphenyl)-, (z)-",C10H10O3,014737-91-8,COc1ccccc1\C=C/C(O)=O,sangster (1994) ,1.81,10,10,0,3,0,0,0,0,0,0,,13,
"n'-methyl-6-methylsulfanyl-n-propan-2-yl-1,3,5-triazine-2,4-diamine",C8H15N5S1,001014-69-3,CNc1nc(NC(C)C)nc(SC)n1,"tomlin,c (1994) ",2.38,8,15,5,0,1,0,0,0,0,0,,14,
"n,n'-diethyl-6-methylsulfanyl-1,3,5-triazine-2,4-diamine",C8H15N5S1,001014-70-6,CCNc1nc(NCC)nc(SC)n1,"finizio,a et al. (1991) ",2.8,8,15,5,0,1,0,0,0,0,0,,14,
n-[2-(1h-indol-3-yl)ethyl]acetamide,C12H14N2O1,001016-47-3,CC(=O)NCCc1c[nH]c2ccccc12,"radzicka,a & wolfenden,r (1988) ",1.41,12,14,2,1,0,0,0,0,0,0,,15,
2-phenyl-1h-quinazolin-4-one,C14H10N2O1,001022-45-3,O=C1N=C(Nc2ccccc12)c3ccccc3,sangster (1993) ,2.53,14,10,2,1,0,0,0,0,0,0,,17,
"3-phenyl-3,4-dihydro-1h-quinolin-2-one",C15H13N1O1,001022-66-8,O=C1Nc2ccccc2CC1c3ccccc3,sangster (1993) ,2.93,15,13,1,1,0,0,0,0,0,0,,17,
heptachlor epoxide,C10H5Cl7O1,001024-57-3,ClC1C2OC2C3C1C4(Cl)C(=C(Cl)C3(Cl)C4(Cl)Cl)Cl,sangster (1993) ,4.98,10,5,0,1,0,0,0,7,0,0,,18,
endosulfan sulfate,C9H6Cl6O4S1,001031-07-8,ClC1=C(Cl)C2(Cl)C3CO[S](=O)(=O)OCC3C1(Cl)C2(Cl)Cl,"hansch,c et al. (1995) ",3.66,9,6,0,4,1,0,0,6,0,0,,20,
"octyl 3,4,5-trihydroxybenzoate",C15H22O5,001034-01-1,CCCCCCCCOC(=O)c1cc(O)c(O)c(O)c1,"hansch,c et al. (1995) ",3.66,15,22,0,5,0,0,0,0,0,0,,20,
acetohydrazide,C2H6N2O1,001068-57-1,CC(=O)NN,"hansch,c et al. (1995) ",-1.58,2,6,2,1,0,0,0,0,0,0,,5,
2-(phosphonomethylamino)acetic acid,C3H8N1O5P1,038641-94-0,OC(=O)CNC[P](O)(O)=O,"tomlin,c (2003) ",-5.4,3,8,1,5,0,1,0,0,0,0,,10,
1-(1h-pyrrol-2-yl)ethanone,C6H7N1O1,001072-83-9,CC(=O)c1[nH]ccc1,"hansch,c et al. (1995) ",0.93,6,7,1,1,0,0,0,0,0,0,,8,
1-bromo-3-fluorobenzene,C6H4Br1F1,001073-06-9,Fc1cccc(Br)c1,"dunn,wj et al. (1983) ",2.92,6,4,0,0,0,0,1,0,1,0,,8,
4-methylsulfanylphenol,C7H8O1S1,001073-72-9,CSc1ccc(O)cc1,"hansch,c et al. (1995) ",1.78,7,8,0,1,1,0,0,0,0,0,,9,
1-methyl-2-propylbenzene,C10H14,001074-17-5,CCCc1ccccc1C,"sherblom,pm & eganhouse,rp (1988) ",4.5,10,14,0,0,0,0,0,0,0,0,,10,
1-methyl-3-propylbenzene,C10H14,001074-43-7,CCCc1cccc(C)c1,"sherblom,pm & eganhouse,rp (1988) ",4.67,10,14,0,0,0,0,0,0,0,0,,10,
1-methyl-4-propylbenzene,C10H14,001074-55-1,CCCc1ccc(C)cc1,"sherblom,pm & eganhouse,rp (1988) ",4.6,10,14,0,0,0,0,0,0,0,0,,10,
4-ethenylbenzoic acid,C9H8O2,001075-49-6,OC(=O)c1ccc(C=C)cc1,sangster (1993) ,2.18,9,8,0,2,0,0,0,0,0,0,,11,
3-methylxanthine,C6H6N4O2,001076-22-8,CN1C(=O)NC(=O)c2[nH]cnc12,"gaspari,f & bonati,m (1987) ",-0.5,6,6,4,2,0,0,0,0,0,0,,12,
"2-(phenoxy)-1,3,2-dioxaphospholane",C8H9O3P1,001077-05-0,C1COP(O1)Oc2ccccc2,"hansch,c et al. (1995) ",1.42,8,9,0,3,0,1,0,0,0,0,,12,
hexylbenzene,C12H18,001077-16-3,CCCCCCc1ccccc1,"hansch,c et al. (1995) ",5.52,12,18,0,0,0,0,0,0,0,0,,12,
heptylbenzene,C13H20,001078-71-3,CCCCCCCc1ccccc1,"ritter,s et al. (1995) ",5.37,13,20,0,0,0,0,0,0,0,0,,13,
methyl 2-amino-3-(4-hydroxyphenyl)propanoate,C10H13N1O3,001080-06-4,COC(=O)C(N)Cc1ccc(O)cc1,"huang,ch et al. (1985) ",0.29,10,13,1,3,0,0,0,0,0,0,,14,
"2,5-di(thiophen-2-yl)thiophene",C12H8S3,001081-34-1,s1cccc1c2sc(cc2)c3sccc3,"mclachlan,d et al. (1986) ",5.57,12,8,0,0,3,0,0,0,0,0,,15,
nonylbenzene,C15H24,001081-77-2,CCCCCCCCCc1ccccc1,"sherblom,pm & eganhouse,rp (1988) ",7.11,15,24,0,0,0,0,0,0,0,0,,15,
"1-(2,3,4-trimethoxyphenyl)propan-2-amine",C12H19N1O3,001082-23-1,COc1ccc(CC(C)N)c(OC)c1OC,"hansch,c & leo,aj (1985) ",1.51,12,19,1,3,0,0,0,0,0,0,,16,
"1-(3,4,5-trimethoxyphenyl)propan-2-amine",C12H19N1O3,001082-88-8,COc1cc(CC(C)N)cc(OC)c1OC,"hansch,c & leo,aj (1985) ",1.21,12,19,1,3,0,0,0,0,0,0,,16,
"1-(2,4,5-trimethoxyphenyl)propan-2-amine",C12H19N1O3,001083-09-6,COc1cc(OC)c(OC)cc1CC(C)N,"hansch,c & leo,aj (1985) ",1.74,12,19,1,3,0,0,0,0,0,0,,16,
hexyl 4-hydroxybenzoate,C13H18O3,001083-27-8,CCCCCCOC(=O)c1ccc(O)cc1,"hansch,c et al. (1995) ",4.35,13,18,0,3,0,0,0,0,0,0,,16,
"butyl 3,4,5-trihydroxybenzoate",C11H14O5,001083-41-6,CCCCOC(=O)c1cc(O)c(O)c(O)c1,"hansch,c et al. (1995) ",2.41,11,14,0,5,0,0,0,0,0,0,,16,
4-[(4-nitrophenyl)methyl]pyridine,C12H10N2O2,001083-48-3,[O-][N+](=O)c1ccc(Cc2ccncc2)cc1,sangster (1993) ,2.88,12,10,2,2,0,0,0,0,0,0,,16,
heptyl 4-hydroxybenzoate,C14H20O3,001085-12-7,CCCCCCCOC(=O)c1ccc(O)cc1,"hansch,c et al. (1995) ",4.83,14,20,0,3,0,0,0,0,0,0,,17,
dichlofluanid,C9H11Cl2F1N2O2S2,001085-98-9,CN(C)[S](=O)(=O)N(SC(F)(Cl)Cl)c1ccccc1,"tomlin,c (1997) ",3.7,9,11,2,2,2,0,1,2,0,0,,18,
"hexyl 3,4,5-trihydroxybenzoate",C13H18O5,001087-26-9,CCCCCCOC(=O)c1cc(O)c(O)c(O)c1,"hansch,c et al. (1995) ",3.17,13,18,0,5,0,0,0,0,0,0,,18,
"1,4-benzdiazepin-2-one-5-ph-7-cl",C15H11Cl1N2O1,001088-11-5,c32cc(Cl)ccc3NC(=O)CN=C2c1ccccc1,"hansch,c et al. (1995) ",2.93,15,11,2,1,0,0,0,1,0,0,,19,
2-dimethoxyphosphorylsulfanyl-n-methylacetamide,C5H12N1O4P1S1,001113-02-6,CNC(=O)CS[P](=O)(OC)OC,"tomlin,c (1997) ",-0.74,5,12,1,4,1,1,0,0,0,0,,12,
s-propyl (butyl-ethylamino)methanethioate,C10H21N1O1S1,001114-71-2,CCCCN(CC)C(=O)SCCC,"tomlin,c (1994) ",3.83,10,21,1,1,1,0,0,0,0,0,,13,
"n,n-bis(2-cyanoethyl)nitrous amide",C6H8N4O1,001116-82-1,O=NN(CCC#N)CCC#N,"hansch,c et al. (1995) ",0.08,6,8,4,1,0,0,0,0,0,0,,11,
2-dimethylaminoacetic acid,C4H9N1O2,001118-68-9,CN(C)CC(O)=O,"tsai,rs et al. (1991) ",-2.91,4,9,1,2,0,0,0,0,0,0,,7,
dimethyl pentanedioate,C7H12O4,001119-40-0,COC(=O)CCCC(=O)OC,"hansch,c et al. (1995) ",0.62,7,12,0,4,0,0,0,0,0,0,,11,
methyl icosanoate,C21H42O2,001120-28-1,CCCCCCCCCCCCCCCCCCCC(=O)OC,"krop,hb et al. (1997) ",9.3,21,42,0,2,0,0,0,0,0,0,,23,
"13-docosenoic acid, methyl ester, (z)-",C23H44O2,001120-34-9,CCCCCCCC\C=C/CCCCCCCCCCCC(=O)OC,"krop,hb et al. (1997) ",9.32,23,44,0,2,0,0,0,0,0,0,,25,
4-bromopyridine,C5H4Br1N1,001120-87-2,Brc1ccncc1,"hansch,c et al. (1995) ",1.54,5,4,1,0,0,0,0,0,1,0,,7,
4-methylpyridazine,C5H6N2,001120-88-3,Cc1ccnnc1,"yamagami,c et al. (1990) ",-0.32,5,6,2,0,0,0,0,0,0,0,,7,