Names,Formula,CAS No,SMILES,Reference,Exp logp,C,H,N,O,S,P,F,Cl,Br,I,,,
2-(4-methyl-1-cyclohex-3-enyl)propan-2-yl acetate,C12H20O2,000080-26-2,CC(=O)OC(C)(C)C1CCC(=CC1)C,"griffin,s et al. (1999) ",3.96,12,20,0,2,0,0,0,0,0,0,,14,
4-amino-n-(6-methoxypyridazin-3-yl)benzenesulfonamide,C11H12N4O3S1,000080-35-3,COc1ccc(N[S](=O)(=O)c2ccc(N)cc2)nn1,"hansch,c et al. (1995) ",0.32,11,12,4,3,1,0,0,0,0,0,,19,
ethyl 4-methylbenzenesulfonate,C9H12O3S1,000080-40-0,CCO[S](=O)(=O)c1ccc(C)cc1,"hansch,c et al. (1995) ",1.81,9,12,0,3,1,0,0,0,0,0,,13,
2-(2-phenylpropan-2-ylperoxy)propan-2-ylbenzene,C18H22O2,000080-43-3,CC(C)(OOC(C)(C)c1ccccc1)c2ccccc2,chemicals inspection and testing institu (1992) ,5.5,18,22,0,2,0,0,0,0,0,0,,20,
"4,7,7-trimethylbicyclo[3.1.1]hept-3-ene",C10H16,007785-70-8,CC1=CCC2CC1C2(C)C,"griffin,s et al. (1999) ",4.44,10,16,0,0,0,0,0,0,0,0,,10,
2-bromobutanoic acid,C4H7Br1O2,000080-58-0,CCC(Br)C(O)=O,"hansch,c et al. (1995) ",1.42,4,7,0,2,0,0,0,0,1,0,,7,
2-aminobutanoic acid,C4H9N1O2,000080-60-4,CCC(N)C(O)=O,"tsai,rs et al. (1991) ",-2.54,4,9,1,2,0,0,0,0,0,0,,7,
methyl 2-methylprop-2-enoate,C5H8O2,000080-62-6,COC(=O)C(C)=C,"hansch,c et al. (1995) ",1.38,5,8,0,2,0,0,0,0,0,0,,7,
"1,1,3,3-tetramethylguanidine",C5H13N3,000080-70-6,CN(C)C(=N)N(C)C,"hansch,c et al. (1995) ",0.41,5,13,3,0,0,0,0,0,0,0,,8,
1-aminonaphthalene-2-sulfonic acid,C10H9N1O3S1,000081-06-1,Nc1c2ccccc2ccc1[S](O)(=O)=O,"hansch,c et al. (1995) ",-0.97,10,9,1,3,1,0,0,0,0,0,,15,
"1,1-dioxo-1,2-benzothiazol-3-one",C7H5N1O3S1,000081-07-2,O=C1N[S](=O)(=O)c2ccccc12,"hansch,c et al. (1995) ",0.91,7,5,1,3,1,0,0,0,0,0,,12,
amsonic acid,C14H14N2O6S2,000081-11-8,Nc1ccc(\C=C\c2ccc(N)cc2[S](O)(=O)=O)c(c1)[S](O)(=O)=O,iuclid 201-325-2 ,-1.7,14,14,2,6,2,0,0,0,0,0,,24,
"1-(4-tert-butyl-2,6-dimethyl-3,5-dinitrophenyl)ethanone",C14H18N2O5,000081-14-1,CC(=O)c1c(C)c(c(c(c1C)[N+]([O-])=O)C(C)(C)C)[N+]([O-])=O,"tas,jw et al. (1997) ",4.3,14,18,2,5,0,0,0,0,0,0,,21,
2-aminonaphthalene-1-sulfonic acid,C10H9N1O3S1,000081-16-3,Nc1ccc2ccccc2c1[S](O)(=O)=O,"hansch,c et al. (1995) ",-1.16,10,9,1,3,1,0,0,0,0,0,,15,
"1,3-dimethyl-2-nitrobenzene",C8H9N1O2,000081-20-9,Cc1cccc(C)c1[N+]([O-])=O,"hansch,c et al. (1995) ",2.95,8,9,1,2,0,0,0,0,0,0,,11,
"4-(3,7,12-trihydroxy-10,13-dimethyl-2,3,4,5,6,7,8,9,11,12,14,15,16,17-tetradecahydro-1h-cyclopenta[a]phenanthren-17-yl)pentanoic acid",C24H40O5,000081-25-4,CC(CCC(O)=O)C1CCC2C3C(O)CC4CC(O)CCC4(C)C3CC(O)C12C,"roda,a et al. (1990) ",2.02,24,40,0,5,0,0,0,0,0,0,,29,
4-[[2-(hydroxymethyl)phenyl]-(4-hydroxyphenyl)methyl]phenol,C20H18O3,000081-92-5,OCc1ccccc1C(c2ccc(O)cc2)c3ccc(O)cc3,sangster (1993) ,3.27,20,18,0,3,0,0,0,0,0,0,,23,
82-05-3,C17H10O1,000082-05-3,O=C1c2ccccc2c3cccc4cccc1c34,chemicals inspection and testing institu (1992) ,4.81,17,10,0,1,0,0,0,0,0,0,,18,
9h-xanthene-9-carboxylic acid,C14H10O3,000082-07-5,OC(=O)C1c2ccccc2Oc3ccccc13,"hansch,c et al. (1995) ",2.23,14,10,0,3,0,0,0,0,0,0,,17,
"1-methylaminoanthracene-9,10-dione",C15H11N1O2,000082-38-2,CNc1cccc2C(=O)c3ccccc3C(=O)c12,"baughman,gl & weber,ej (1991) ",4.1,15,11,1,2,0,0,0,0,0,0,,18,
"1-aminoanthracene-9,10-dione",C14H9N1O2,000082-45-1,Nc1cccc2C(=O)c3ccccc3C(=O)c12,chemicals inspection and testing institu (1992) ,3.74,14,9,1,2,0,0,0,0,0,0,,17,
"2-[2,2-di(phenyl)acetyl]indene-1,3-dione",C23H16O3,000082-66-6,O=C(C(c1ccccc1)c2ccccc2)C3C(=O)c4ccccc4C3=O,usepa red ,4.27,23,16,0,3,0,0,0,0,0,0,,26,
pentachloronitrobenzene,C6Cl5N1O2,000082-68-8,[O-][N+](=O)c1c(Cl)c(Cl)c(Cl)c(Cl)c1Cl,sangster (1994) ,4.64,6,0,1,2,0,0,0,5,0,0,,14,
"acenaphthene-1,2-dione",C12H6O2,000082-86-0,O=C1C(=O)c2cccc3cccc1c23,"hansch,c et al. (1995) ",1.95,12,6,0,2,0,0,0,0,0,0,,14,
bis-(4-chlorophenyl)acetic acid,C14H10Cl2O2,not,OC(=O)C(c1ccc(Cl)cc1)c2ccc(Cl)cc2,"hansch,c et al. (1995) ",4.48,14,10,0,2,0,0,0,2,0,0,,18,
"2-phenylindene-1,3-dione",C15H10O2,000083-12-5,O=C1C(c2ccccc2)C(=O)c3ccccc13,"hansch,c et al. (1995) ",2.9,15,10,0,2,0,0,0,0,0,0,,17,
"1-phenylpyrrolidine-2,5-dione",C10H9N1O2,000083-25-0,O=C1CCC(=O)N1c2ccccc2,"hansch,c et al. (1995) ",0.06,10,9,1,2,0,0,0,0,0,0,,13,
3-methyl-1h-indole,C9H9N1,000083-34-1,Cc1c[nH]c2ccccc12,"hansch,c et al. (1995) ",2.6,9,9,1,0,0,0,0,0,0,0,,10,
2-hydroxy-3-methylbenzoic acid,C8H8O3,000083-40-9,Cc1cccc(C(O)=O)c1O,"hansch,c et al. (1995) ",2.86,8,8,0,3,0,0,0,0,0,0,,11,
"1,2-dimethyl-3-nitrobenzene",C8H9N1O2,000083-41-0,Cc1cccc(c1C)[N+]([O-])=O,"deneer,jw et al. (1987) ",2.83,8,9,1,2,0,0,0,0,0,0,,11,
"benzene, 1-chloro-2-methyl-3-nitro-",C7H6Cl1N1O2,000083-42-1,Cc1c(Cl)cccc1[N+]([O-])=O,"deneer,jw et al. (1987) ",3.09,7,6,1,2,0,0,0,1,0,0,,11,
"4-(3,12-dihydroxy-10,13-dimethyl-2,3,4,5,6,7,8,9,11,12,14,15,16,17-tetradecahydro-1h-cyclopenta[a]phenanthren-17-yl)pentanoic acid",C24H40O4,000083-44-3,CC(CCC(O)=O)C1CCC2C3CCC4CC(O)CCC4(C)C3CC(O)C12C,"roda,a et al. (1990) ",3.5,24,40,0,4,0,0,0,0,0,0,,28,
1-methylquinolin-4-one,C10H9N1O1,000083-54-5,CN1C=CC(=O)c2ccccc12,biobyte (1995) ,0.44,10,9,1,1,0,0,0,0,0,0,,12,
"naphthalene-1,5-diol",C10H8O2,000083-56-7,Oc1cccc2c(O)cccc12,"hansch,c et al. (1995) ",1.94,10,8,0,2,0,0,0,0,0,0,,12,
"3,7-dimethylpurine-2,6-dione",C7H8N4O2,000083-67-0,Cn1cnc2N(C)C(=O)NC(=O)c12,"hansch,c et al. (1995) ",-0.78,7,8,4,2,0,0,0,0,0,0,,13,
"7,8-dimethyl-10-(2,3,4,5-tetrahydroxypentyl)benzo[g]pteridine-2,4-dione",C17H20N4O6,000083-88-5,Cc1cc2N=C3C(=O)NC(=O)N=C3N(CC(O)C(O)C(O)CO)c2cc1C,"hansch,c et al. (1995) ",-1.46,17,20,4,6,0,0,0,0,0,0,,27,
"n,n-dimethyl-2-[(2-methylphenyl)-phenylmethoxy]ethanamine",C18H23N1O1,000083-98-7,CN(C)CCOC(c1ccccc1)c2ccccc2C,sangster (1993) ,3.77,18,23,1,1,0,0,0,0,0,0,,20,
chlorproethazine,C19H23Cl1N2S1,000084-01-5,CCN(CC)CCCN1c2ccccc2Sc3ccc(Cl)cc13,sangster (1994) ,6.46,19,23,2,0,1,0,0,1,0,0,,23,
pipamazine,C21H24Cl1N3O1S1,000084-04-8,NC(=O)C1CCN(CCCN2c3ccccc3Sc4ccc(Cl)cc24)CC1,"hansch,c et al. (1995) ",4.44,21,24,3,1,1,0,0,1,0,0,,27,
"phenanthrene-9,10-dione",C14H8O2,000084-11-7,O=C1C(=O)c2ccccc2c3ccccc13,"hansch,c et al. (1995) ",2.52,14,8,0,2,0,0,0,0,0,0,,16,
"2-ethylanthracene-9,10-dione",C16H12O2,000084-51-5,CCc1ccc2C(=O)c3ccccc3C(=O)c2c1,"debruijn,j et al. (1989) ",4.37,16,12,0,2,0,0,0,0,0,0,,18,
"anthracene-9,10-dione",C14H8O2,000084-65-1,O=C1c2ccccc2C(=O)c3ccccc13,"hansch,c et al. (1995) ",3.39,14,8,0,2,0,0,0,0,0,0,,16,
"diethyl benzene-1,2-dicarboxylate",C12H14O4,000084-66-2,CCOC(=O)c1ccccc1C(=O)OCC,"ellington,jt & floyd,tl (1996) ",2.42,12,14,0,4,0,0,0,0,0,0,,16,
"bis(2-methylpropyl) benzene-1,2-dicarboxylate",C16H22O4,000084-69-5,CC(C)COC(=O)c1ccccc1C(=O)OCC(C)C,"hansch,c et al. (1995) ",4.11,16,22,0,4,0,0,0,0,0,0,,20,
"dibutyl benzene-1,2-dicarboxylate",C16H22O4,000084-74-2,CCCCOC(=O)c1ccccc1C(=O)OCCCC,"ellington,jt & floyd,tl (1996) ",4.5,16,22,0,4,0,0,0,0,0,0,,20,
"dihexyl benzene-1,2-dicarboxylate",C20H30O4,000084-75-3,CCCCCCOC(=O)c1ccccc1C(=O)OCCCCCC,"ellington,jt & floyd,tl (1996) ",6.82,20,30,0,4,0,0,0,0,0,0,,24,
"didecyl benzene-1,2-dicarboxylate",C28H46O4,000084-77-5,CCCCCCCCCCOC(=O)c1ccccc1C(=O)OCCCCCCCCCC,"ellington,jj (1999) ",9.05,28,46,0,4,0,0,0,0,0,0,,32,
4-hydroxynaphthalene-1-sulfonic acid,C10H8O4S1,000084-87-7,Oc1ccc(c2ccccc12)[S](O)(=O)=O,"hansch,c et al. (1995) ",-0.44,10,8,0,4,1,0,0,0,0,0,,15,
"n,n,2-trimethyl-3-phenothiazin-10-ylpropan-1-amine",C18H22N2S1,000084-96-8,CC(CN(C)C)CN1c2ccccc2Sc3ccccc13,"hansch,c et al. (1995) ",4.71,18,22,2,0,1,0,0,0,0,0,,21,
phenanthrene,C14H10,000085-01-8,c1ccc2c(c1)ccc3ccccc23,"hansch,c et al. (1995) ",4.46,14,10,0,0,0,0,0,0,0,0,,14,
benzo[f]quinoline,C13H9N1,000230-27-3,c1ccc2c(c1)ccc3ncccc23,sangster (1993) ,3.43,13,9,1,0,0,0,0,0,0,0,,14,
8-chlorotheophylline,C7H7Cl1N4O2,000085-18-7,CN1C(=O)N(C)c2nc(Cl)[nH]c2C1=O,sangster (1994); ph 7.4 ,-0.85,7,7,4,2,0,0,0,1,0,0,,14,
fenac,C8H5Cl3O2,000085-34-7,OC(=O)Cc1c(Cl)ccc(Cl)c1Cl,"hansch,c et al. (1995) ",3.2,8,5,0,2,0,0,0,3,0,0,,13,
"isoindole-1,3-dione",C8H5N1O2,000085-41-6,O=C1NC(=O)c2ccccc12,"hansch,c et al. (1995) ",1.15,8,5,1,2,0,0,0,0,0,0,,11,
"2-benzofuran-1,3-dione",C8H4O3,000085-44-9,O=C1OC(=O)c2ccccc12,"hansch,c et al. (1995) ",1.6,8,4,0,3,0,0,0,0,0,0,,11,
"o1-butyl o2-(phenylmethyl) benzene-1,2-dicarboxylate",C19H20O4,000085-68-7,CCCCOC(=O)c1ccccc1C(=O)OCc2ccccc2,"ellington,jt & floyd,tl (1996) ",4.73,19,20,0,4,0,0,0,0,0,0,,23,
2-butoxy-n-(2-diethylaminoethyl)quinoline-4-carboxamide,C20H29N3O2,000085-79-0,CCCCOc1cc(C(=O)NCCN(CC)CC)c2ccccc2n1,"hansch,c et al. (1995) ",4.4,20,29,3,2,0,0,0,0,0,0,,25,
6-methoxy-8-nitroquinoline,C10H8N2O3,000085-81-4,COc1cc2cccnc2c(c1)[N+]([O-])=O,"debnath,ak et al. (1991) ",1.87,10,8,2,3,0,0,0,0,0,0,,15,
9-ethylcarbazole,C14H13N1,000086-28-2,CCn1c2ccccc2c3ccccc13,"ritter,s et al. (1995) ",4.49,14,13,1,0,0,0,0,0,0,0,,15,
"n,n-di(phenyl)nitrous amide",C12H10N2O1,000086-30-6,O=NN(c1ccccc1)c2ccccc2,"hansch,c et al. (1995) ",3.13,12,10,2,1,0,0,0,0,0,0,,15,
"3-ethyl-5-phenylimidazolidine-2,4-dione",C11H12N2O2,000086-35-1,CCN1C(=O)NC(C1=O)c2ccccc2,sangster (1994) ,1.05,11,12,2,2,0,0,0,0,0,0,,15,
"3-(dimethoxyphosphinothioylsulfanylmethyl)-1,2,3-benzotriazin-4-one",C10H12N3O3P1S2,000086-50-0,CO[P](=S)(OC)SCN1N=Nc2ccccc2C1=O,"hansch,c et al. (1995) ",2.75,10,12,3,3,2,1,0,0,0,0,,19,
phthalazin-1-ylhydrazine,C8H8N4,000086-54-4,NNc1nncc2ccccc12,sangster (1993) ,1,8,8,4,0,0,0,0,0,0,0,,12,
1-naphthalenecarboxylic acid,C11H8O2,000086-55-5,OC(=O)c1cccc2ccccc12,"hansch,c et al. (1995) ",3.1,11,8,0,2,0,0,0,0,0,0,,13,
"n,n-dimethylnaphthalen-1-amine",C12H13N1,000086-56-6,CN(C)c1cccc2ccccc12,"hansch,c et al. (1995) ",3.46,12,13,1,0,0,0,0,0,0,0,,13,
1-nitronaphthalene,C10H7N1O2,000086-57-7,[O-][N+](=O)c1cccc2ccccc12,"hansch,c et al. (1995) ",3.19,10,7,1,2,0,0,0,0,0,0,,13,
9h-fluorene,C13H10,000086-73-7,C1c2ccccc2c3ccccc13,"hansch,c et al. (1995) ",4.18,13,10,0,0,0,0,0,0,0,0,,13,
"3,4,5-trimethoxybenzaldehyde",C10H12O4,000086-81-7,COc1cc(C=O)cc(OC)c1OC,"jin,lj et al. (1998) ",1.39,10,12,0,4,0,0,0,0,0,0,,14,
2-(1-naphthyl)acetic acid,C12H10O2,000086-87-3,OC(=O)Cc1cccc2ccccc12,sangster (1993) ,2.24,12,10,0,2,0,0,0,0,0,0,,14,
naphthalen-1-ylthiourea,C11H10N2S1,000086-88-4,NC(=S)Nc1cccc2ccccc12,"govers,h et al. (1986) ",1.65,11,10,2,0,1,0,0,0,0,0,,14,
"1h-quinazoline-2,4-dione",C8H6N2O2,000086-96-4,O=C1NC(=O)c2ccccc2N1,"hansch,c et al. (1995) ",0.77,8,6,2,2,0,0,0,0,0,0,,12,
"quinoline, 4,7-dichloro-",C9H5Cl2N1,000086-98-6,Clc1ccc2c(Cl)ccnc2c1,"go,ml & ngiam,tl (1988) ",3.57,9,5,1,0,0,0,0,2,0,0,,12,
"3,3-dimethyl-7-oxo-6-[[2-(phenoxy)acetyl]amino]-4-thia-1-azabicyclo[3.2.0]heptane-2-carboxylic acid",C16H18N2O5S1,000087-08-1,CC1(C)SC2C(NC(=O)COc3ccccc3)C(=O)N2C1C(O)=O,"hansch,c et al. (1995) ",2.09,16,18,2,5,1,0,0,0,0,0,,24,
2-hydroxy-n-phenylbenzamide,C13H11N1O2,000087-17-2,Oc1ccccc1C(=O)Nc2ccccc2,"hansch,c et al. (1995) ",3.27,13,11,1,2,0,0,0,0,0,0,,16,
ethyl 2-aminobenzoate,C9H11N1O2,000087-25-2,CCOC(=O)c1ccccc1N,"hansch,c et al. (1995) ",2.57,9,11,1,2,0,0,0,0,0,0,,12,
"(3-nitrooxy-2,3,3a,5,6,6a-hexahydrofuro[2,3-d]furan-6-yl) nitrate",C6H8N2O8,000087-33-2,[O-][N+](=O)OC1COC2C(COC12)O[N+]([O-])=O,"hansch,c et al. (1995) ",1.31,6,8,2,8,0,0,0,0,0,0,,16,
"2,4,6-trichloroanisole",C7H5Cl3O1,000087-40-1,COc1c(Cl)cc(Cl)cc1Cl,"opperhuizen,a & voors,pi (1987) ",4.11,7,5,0,1,0,0,0,3,0,0,,11,
3h-2-benzofuran-1-one,C8H6O2,000087-41-2,O=C1OCc2ccccc12,"hansch,c et al. (1995) ",0.8,8,6,0,2,0,0,0,0,0,0,,10,
2-(1h-indol-3-yl)ethanoic acid,C10H9N1O2,000087-51-4,OC(=O)Cc1c[nH]c2ccccc12,"hansch,c et al. (1995) ",1.41,10,9,1,2,0,0,0,0,0,0,,13,
"1,2,3-trichlorobenzene",C6H3Cl3,000087-61-6,Clc1cccc(Cl)c1Cl,sangster (1994) ,4.05,6,3,0,0,0,0,0,3,0,0,,9,
"2,6-dimethylaniline",C8H11N1,000087-62-7,Cc1cccc(C)c1N,biobyte (1995) ,1.84,8,11,1,0,0,0,0,0,0,0,,9,
2-methyl-6-chlorophenol,C7H7Cl1O1,000087-64-9,Cc1cccc(Cl)c1O,"sotomatsu,t et al. (1993) ",2.8,7,7,0,1,0,0,0,1,0,0,,9,
"2,6-dichlorophenol",C6H4Cl2O1,000087-65-0,Oc1c(Cl)cccc1Cl,"hansch,c et al. (1995) ",2.75,6,4,0,1,0,0,0,2,0,0,,9,
hexachlorobutadiene,C4Cl6,000087-68-3,ClC(Cl)=C(Cl)C(Cl)=C(Cl)Cl,"hansch,c et al. (1995) ",4.78,4,0,0,0,0,0,0,6,0,0,,10,
"1,2,3,4,5,6-hexabromobenzene",C6Br6,000087-82-1,Brc1c(Br)c(Br)c(Br)c(Br)c1Br,"hansch,c et al. (1995) ",6.07,6,0,0,0,0,0,0,0,6,0,,12,
"cyclohexane, 1,2,3,4,5-pentabromo-6-chloro-",C6H6Br5Cl1,000087-84-3,ClC1C(Br)C(Br)C(Br)C(Br)C1Br,chemicals inspection and testing institu (1992) ,4.72,6,6,0,0,0,0,0,1,5,0,,12,
"1,2,3,4,5,6-hexamethylbenzene",C12H18,000087-85-4,Cc1c(C)c(C)c(C)c(C)c1C,sangster (1994) ,5.11,12,18,0,0,0,0,0,0,0,0,,12,
pentachlorophenol,C6H1Cl5O1,000087-86-5,Oc1c(Cl)c(Cl)c(Cl)c(Cl)c1Cl,"hansch,c et al. (1995) ",5.12,6,1,0,1,0,0,0,5,0,0,,12,
"diethyl 2,3-dihydroxybutanedioate",C8H14O6,000087-91-2,CCOC(=O)C(O)C(O)C(=O)OCC,"hansch,c et al. (1995) ",-0.29,8,14,0,6,0,0,0,0,0,0,,14,
"4-chloro-3,5-dimethyl phenol",C8H9Cl1O1,000088-04-0,Cc1cc(O)cc(C)c1Cl,sangster (2006) ,3.27,8,9,0,1,0,0,0,1,0,0,,10,
"2,4,6-trichlorophenol",C6H3Cl3O1,000088-06-2,Oc1c(Cl)cc(Cl)cc1Cl,"hansch,c et al. (1995) ",3.69,6,3,0,1,0,0,0,3,0,0,,10,
2-ethylbutanoic acid,C6H12O2,000088-09-5,CCC(CC)C(O)=O,sangster (1993) ,1.68,6,12,0,2,0,0,0,0,0,0,,8,
1-ethenylpyrrolidin-2-one,C6H9N1O1,000088-12-0,C=CN1CCCC1=O,"hansch,c et al. (1995) ",0.37,6,9,1,1,0,0,0,0,0,0,,8,
thiophene-3-carboxylic acid,C5H4O2S1,000088-13-1,OC(=O)c1cscc1,"hansch,c et al. (1995) ",1.5,5,4,0,2,1,0,0,0,0,0,,8,
furan-2-carboxylic acid,C5H4O3,000088-14-2,OC(=O)c1occc1,pomona (1987) ,0.64,5,4,0,3,0,0,0,0,0,0,,8,
1-thiophen-2-ylethanone,C6H6O1S1,000088-15-3,CC(=O)c1sccc1,"hansch,c et al. (1995) ",1.25,6,6,0,1,1,0,0,0,0,0,,8,
chloro(trifluoromethyl)benzene,C7H4Cl1F3,000088-16-4,FC(F)(F)c1ccccc1Cl,"hansch,c et al. (1995) ",3.53,7,4,0,0,0,0,3,1,0,0,,11,
2-(trifluoromethyl)aniline,C7H6F3N1,000088-17-5,Nc1ccccc1C(F)(F)F,"hansch,c et al. (1995) ",2.41,7,6,1,0,0,0,3,0,0,0,,11,
2-tert-butylphenol,C10H14O1,000088-18-6,CC(C)(C)c1ccccc1O,"hansch,c et al. (1995) ",3.31,10,14,0,1,0,0,0,0,0,0,,11,
2-methylbenzenesulfonamide,C7H9N1O2S1,000088-19-7,Cc1ccccc1[S](N)(=O)=O,"hansch,c et al. (1995) ",0.84,7,9,1,2,1,0,0,0,0,0,,11,
"2,4-diaminobenzenesulfonic acid",C6H8N2O3S1,000088-63-1,Nc1ccc(c(N)c1)[S](O)(=O)=O,"zou,h et al. (1995) ",-4.65,6,8,2,3,1,0,0,0,0,0,,12,
2-bromobenzoic acid,C7H5Br1O2,000088-65-3,OC(=O)c1ccccc1Br,"hansch,c et al. (1995) ",2.2,7,5,0,2,0,0,0,0,1,0,,10,
2-iodobenzoic acid,C7H5I1O2,000088-67-5,OC(=O)c1ccccc1I,"hansch,c et al. (1995) ",2.4,7,5,0,2,0,0,0,0,0,1,,10,
2-aminobenzamide,C7H8N2O1,000088-68-6,NC(=O)c1ccccc1N,"hansch,c et al. (1995) ",0.35,7,8,2,1,0,0,0,0,0,0,,10,
2-propan-2-ylphenol,C9H12O1,000088-69-7,CC(C)c1ccccc1O,"hansch,c et al. (1995) ",2.88,9,12,0,1,0,0,0,0,0,0,,10,
1-methyl-2-nitrobenzene,C7H7N1O2,000088-72-2,Cc1ccccc1[N+]([O-])=O,"hansch,c et al. (1995) ",2.3,7,7,1,2,0,0,0,0,0,0,,10,
2-chloro-1-nitrobenzene,C6H4Cl1N1O2,000088-73-3,[O-][N+](=O)c1ccccc1Cl,"hansch,c et al. (1995) ",2.24,6,4,1,2,0,0,0,1,0,0,,10,
2-nitroaniline,C6H6N2O2,000088-74-4,Nc1ccccc1[N+]([O-])=O,"hansch,c et al. (1995) ",1.85,6,6,2,2,0,0,0,0,0,0,,10,
"2-butan-2-yl-4,6-dinitrophenol",C10H12N2O5,000088-85-7,CCC(C)c1cc(cc(c1O)[N+]([O-])=O)[N+]([O-])=O,"hansch,c et al. (1995) ",3.56,10,12,2,5,0,0,0,0,0,0,,17,
"2,4,6-trinitrophenol",C6H3N3O7,000088-89-1,Oc1c(cc(cc1[N+]([O-])=O)[N+]([O-])=O)[N+]([O-])=O,sangster (1994) ,1.33,6,3,3,7,0,0,0,0,0,0,,16,
"benzene-1,2-dicarboxamide",C8H8N2O2,000088-96-0,NC(=O)c1ccccc1C(N)=O,"hansch,c et al. (1995) ",-1.73,8,8,2,2,0,0,0,0,0,0,,12,
phthalic acid,C8H6O4,000088-99-3,OC(=O)c1ccccc1C(O)=O,"hansch,c et al. (1995) ",0.73,8,6,0,4,0,0,0,0,0,0,,12,
"5-phenylimidazolidine-2,4-dione",C9H8N2O2,000089-24-7,O=C1NC(C(=O)N1)c2ccccc2,"lipinski,ca et al. (1991) ",0.46,9,8,2,2,0,0,0,0,0,0,,13,
2-acetamidobenzoic acid,C9H9N1O3,000089-52-1,CC(=O)Nc1ccccc1C(O)=O,"hansch,c et al. (1995) ",1.88,9,9,1,3,0,0,0,0,0,0,,13,
5-bromo-2-hydroxybenzoic acid,C7H5Br1O3,000089-55-4,OC(=O)c1cc(Br)ccc1O,"hansch,c et al. (1995) ",3.23,7,5,0,3,0,0,0,0,1,0,,11,
2-hydroxy-5-methylbenzoic acid,C8H8O3,000089-56-5,Cc1ccc(O)c(c1)C(O)=O,"hansch,c et al. (1995) ",2.78,8,8,0,3,0,0,0,0,0,0,,11,
"benzene, 4-chloro-1-methyl-2-nitro-",C7H6Cl1N1O2,000089-59-8,Cc1ccc(Cl)cc1[N+]([O-])=O,"deneer,jw et al. (1987) ",3.05,7,6,1,2,0,0,0,1,0,0,,11,
"2,5-dichloronitrobenzene",C6H3Cl2N1O2,000089-61-2,[O-][N+](=O)c1cc(Cl)ccc1Cl,"hansch,c et al. (1995) ",3.09,6,3,1,2,0,0,0,2,0,0,,11,
4-chloro-2-nitrophenol,C6H4Cl1N1O3,000089-64-5,Oc1ccc(Cl)cc1[N+]([O-])=O,"schwarzenbach,rp et al. (1988) ",2.46,6,4,1,3,0,0,0,1,0,0,,11,
chlorothymol,C10H13Cl1O1,000089-68-9,CC(C)c1ccc(C)c(Cl)c1O,"hansch,c et al. (1995) ",3.92,10,13,0,1,0,0,0,1,0,0,,12,
"2,4,5-trichloronitrobenzene",C6H2Cl3N1O2,000089-69-0,[O-][N+](=O)c1cc(Cl)c(Cl)cc1Cl,"hansch,c et al. (1995) ",3.48,6,2,1,2,0,0,0,3,0,0,,12,
methyl 2-methylbenzoate,C9H10O2,000089-71-4,COC(=O)c1ccccc1C,"hansch,c et al. (1995) ",2.75,9,10,0,2,0,0,0,0,0,0,,11,
2-butan-2-ylphenol,C10H14O1,000089-72-5,CCC(C)c1ccccc1O,"hansch,c et al. (1995) ",3.27,10,14,0,1,0,0,0,0,0,0,,11,
5-methyl-2-propan-2-ylcyclohexan-1-ol,C10H20O1,023283-97-8,CC(C)C1CCC(C)CC1O,"griffin,s et al. (1999) ",3.19,10,20,0,1,0,0,0,0,0,0,,11,
3-methyl-6-propan-2-ylcyclohex-2-en-1-one,C10H16O1,000089-81-6,CC(C)C1CCC(=CC1=O)C,"griffin,s et al. (1999) ",2.85,10,16,0,1,0,0,0,0,0,0,,11,
5-methyl-2-propan-2-ylidenecyclohexan-1-one,C10H16O1,000089-82-7,CC1CCC(=C(C)C)C(=O)C1,"griffin,s et al. (1999) ",3.08,10,16,0,1,0,0,0,0,0,0,,11,
5-methyl-2-propan-2-ylphenol,C10H14O1,000089-83-8,CC(C)c1ccc(C)cc1O,"hansch,c et al. (1995) ",3.3,10,14,0,1,0,0,0,0,0,0,,11,
"2,4-dihydroxybenzoic acid",C7H6O4,000089-86-1,OC(=O)c1ccc(O)cc1O,"hansch,c et al. (1995) ",1.63,7,6,0,4,0,0,0,0,0,0,,11,
2-chlorobenzaldehyde,C7H5Cl1O1,000089-98-5,Clc1ccccc1C=O,"hansch,c et al. (1995) ",2.33,7,5,0,1,0,0,0,1,0,0,,9,
2-ethylphenol,C8H10O1,000090-00-6,CCc1ccccc1O,"hansch,c et al. (1995) ",2.47,8,10,0,1,0,0,0,0,0,0,,9,
2-(hydroxymethyl)phenol,C7H8O2,000090-01-7,OCc1ccccc1O,"hansch,c et al. (1995) ",0.73,7,8,0,2,0,0,0,0,0,0,,9,
2-hydroxybenzaldehyde,C7H6O2,000090-02-8,Oc1ccccc1C=O,"hansch,c et al. (1995) ",1.81,7,6,0,2,0,0,0,0,0,0,,9,
2-methoxyaniline,C7H9N1O1,000090-04-0,COc1ccccc1N,"hansch,c et al. (1995) ",1.18,7,9,1,1,0,0,0,0,0,0,,9,
2-methoxyphenol,C7H8O2,000090-05-1,COc1ccccc1O,"hansch,c et al. (1995) ",1.32,7,8,0,2,0,0,0,0,0,0,,9,
1-methylnaphthalene,C11H10,000090-12-0,Cc1cccc2ccccc12,"hansch,c et al. (1995) ",3.87,11,10,0,0,0,0,0,0,0,0,,11,
chloronaphthalene,C10H7Cl1,025586-43-0,Clc1cccc2ccccc12,"foster,gd & tullis,re (1984) ",4.08,10,7,0,0,0,0,0,1,0,0,,11,
naphthalen-1-ol,C10H8O1,000090-15-3,Oc1cccc2ccccc12,"hansch,c et al. (1995) ",2.85,10,8,0,1,0,0,0,0,0,0,,11,
n-phenylnaphthalen-1-amine,C16H13N1,000090-30-2,N(c1ccccc1)c2cccc3ccccc23,"hansch,c et al. (1995) ",4.2,16,13,1,0,0,0,0,0,0,0,,17,
2-phenylaniline,C12H11N1,000090-41-5,Nc1ccccc1c2ccccc2,"hansch,c et al. (1995) ",2.84,12,11,1,0,0,0,0,0,0,0,,13,
2-phenylphenol,C12H10O1,000090-43-7,Oc1ccccc1c2ccccc2,"hansch,c et al. (1995) ",3.09,12,10,0,1,0,0,0,0,0,0,,13,
10h-anthracen-9-one,C14H10O1,000090-44-8,O=C1c2ccccc2Cc3ccccc13,"hansch,c et al. (1995) ",3.66,14,10,0,1,0,0,0,0,0,0,,15,
xanthen-9-one,C13H8O2,000090-47-1,O=C1c2ccccc2Oc3ccccc13,"hansch,c et al. (1995) ",3.39,13,8,0,2,0,0,0,0,0,0,,15,
2-hydroxy-2-phenylacetic acid,C8H8O3,000090-64-2,OC(C(O)=O)c1ccccc1,"hansch,c et al. (1995) ",0.62,8,8,0,3,0,0,0,0,0,0,,11,
bis(4-dimethylaminophenyl)methanone,C17H20N2O1,000090-94-8,CN(C)c1ccc(cc1)C(=O)c2ccc(cc2)N(C)C,"hansch,c et al. (1995) ",3.87,17,20,2,1,0,0,0,0,0,0,,20,
di(phenyl)methanol,C13H12O1,000091-01-0,OC(c1ccccc1)c2ccccc2,"hansch,c et al. (1995) ",2.67,13,12,0,1,0,0,0,0,0,0,,14,
phenyl-pyridin-2-ylmethanone,C12H9N1O1,000091-02-1,O=C(c1ccccc1)c2ccccn2,"hansch,c et al. (1995) ",1.88,12,9,1,1,0,0,0,0,0,0,,14,
"2,6-dimethoxyphenol",C8H10O3,000091-10-1,COc1cccc(OC)c1O,"sotomatsu,t et al. (1993) ",1.15,8,10,0,3,0,0,0,0,0,0,,11,
phthalonitrile,C8H4N2,000091-15-6,N#Cc1ccccc1C#N,"nakagawa,y et al. (1992) ",0.99,8,4,2,0,0,0,0,0,0,0,,10,
"1,2-dimethoxybenzene",C8H10O2,000091-16-7,COc1ccccc1OC,"hansch,c et al. (1995) ",1.6,8,10,0,2,0,0,0,0,0,0,,10,