Names,Formula,CAS No,SMILES,Reference,Exp logp,C,H,N,O,S,P,F,Cl,Br,I,,,
"1-(2,5-dimethoxy-4-methylsulfanylphenyl)propan-2-amine",C12H19N1O2S1,061638-07-1,COc1cc(SC)c(OC)cc1CC(C)N,"hansch,c et al. (1995) ",2.17,12,19,1,2,1,0,0,0,0,0,,16,
"2,5-dimethoxy-4-mes-phenethylamine",C11H17N1O2S1,061638-09-3,S(C)c1cc(OC)c(CCN)cc1OC,"hansch,c et al. (1995) ",1.81,11,17,1,2,1,0,0,0,0,0,,15,
"2-chloro-6-(n,n-dimethylamino)-pyrazine",C6H8Cl1N3,061655-72-9,CN(C)c1cncc(Cl)n1,"yamagami,c & takao,n (1991) ",1.95,6,8,3,0,0,0,0,1,0,0,,10,
"3-[4-(benzoyl)phenyl]-1,1-dimethylurea",C16H16N2O2,061706-06-7,CN(C)C(=O)Nc1ccc(cc1)C(=O)c2ccccc2,"hansch,c et al. (1995) ",2.59,16,16,2,2,0,0,0,0,0,0,,20,
"propanedioic acid, (1,3-dithiolan-2-ylidene)-, d",C16H26O4S2,061782-00-1,S1CCSC1=C(C(=O)OCCCCC)C(=O)OCCCCC,biobyte (1995) ,5.6,16,26,0,4,2,0,0,0,0,0,,22,
"2,2',3,3',4,6-hexachlorobiphenyl",C12H4Cl6,061798-70-7,Clc1cccc(c1Cl)c2c(Cl)cc(Cl)c(Cl)c2Cl,biobyte (1995) ,7.25,12,4,0,0,0,0,0,6,0,0,,18,
"ethanone,1-(4-clph)-2-[(4meph)sulfonyl]",C15H13Cl1O3S1,061820-94-8,Clc1ccc(C(=O)CS(=O)(=O)c2ccc(C)cc2)cc1,"wang,l et al. (1993) ",3.43,15,13,0,3,1,0,0,1,0,0,,20,
1-(4-methylphenyl)-2-(4-methylphenyl)sulfonylethanone,C16H16O3S1,061820-95-9,Cc1ccc(cc1)C(=O)C[S](=O)(=O)c2ccc(C)cc2,"wang,l et al. (1993) ",3.3,16,16,0,3,1,0,0,0,0,0,,20,
"2-(4-phenyl-1,3-thiazol-2-yl)ethanamine",C11H12N2S1,061887-92-1,NCCc1scc(n1)c2ccccc2,"young,rc et al. (1993) ",2.22,11,12,2,0,1,0,0,0,0,0,,14,
2-(m-fluorophenyl)morpholine,C10H12F1N1O1,062008-55-3,Fc1cccc(c1)C2CNCCO2,"hansch,c et al. (1995) ",1.42,10,12,1,1,0,0,1,0,0,0,,13,
2-(m-tolyl)morpholine,C11H15N1O1,062008-56-4,Cc1cccc(c1)C2CNCCO2,"hansch,c et al. (1995) ",1.52,11,15,1,1,0,0,0,0,0,0,,13,
"4-amino-3-methylsulfanyl-1,2,4-triazin-5-one",C4H6N4O1S1,062036-62-8,CSC1=NN=CC(=O)N1N,"hansch,c & leo,aj (1985) ",0.38,4,6,4,1,1,0,0,0,0,0,,10,
"propanamide, n-(4-chlorophenyl)-2-hydroxy-2-meth",C10H12Cl1N1O2,062100-41-8,Clc1ccc(NC(=O)C(C)(C)O)cc1,"morris,jj et al. (1991) ",2,10,12,1,2,0,0,0,1,0,0,,14,
"propanamide, 2-hydroxy-2-methyl-n-(4-nitrophenyl",C10H12N2O4,062100-54-3,OC(C)(C)C(=O)Nc1ccc(N(=O)(=O))cc1,"morris,jj et al. (1991) ",1.61,10,12,2,4,0,0,0,0,0,0,,16,
"acetamide, n-(2,3-dimethyl-8-nitro-4-oxo-4h-1-be",C13H12N2O5,062100-83-8,O1C(C)=C(C)C(=O)c2ccc(NC(=O)(C))c(N(=O)(=O))c12,pomona (1987) ,1.61,13,12,2,5,0,0,0,0,0,0,,20,
5-chloroquinoxaline,C8H5Cl1N2,062163-09-1,Clc1cccc2nccnc12,"hansch,c et al. (1995) ",1.75,8,5,2,0,0,0,0,1,0,0,,11,
4-pyridin-4-ylbutan-1-amine,C9H14N2,062174-83-8,NCCCCc1ccncc1,"hansch,c et al. (1995) ",0.86,9,14,2,0,0,0,0,0,0,0,,11,
"2-(hydroxymethyl)-6-propoxyoxane-3,4,5-triol",C9H18O6,062178-32-9,CCCOC1OC(CO)C(O)C(O)C1O,"hansch,c et al. (1995) ",-1.66,9,18,0,6,0,0,0,0,0,0,,15,
"methanone, (4-chlorophenyl)(5-fluoro-2-hydroxyph",C13H8Cl1F1O2,062433-26-5,Clc1ccc(C(=O)c2cc(F)ccc2O)cc1,"farraj,nf et al. (1988) ",4.05,13,8,0,2,0,0,1,1,0,0,,17,
"7-methyl-1h-quinazoline-2,4-dione",C9H8N2O2,062484-15-5,Cc1ccc2C(=O)NC(=O)Nc2c1,biobyte (1995) ,0.55,9,8,2,2,0,0,0,0,0,0,,13,
"6-methyl-1h-quinazoline-2,4-dione",C9H8N2O2,062484-16-6,Cc1ccc2NC(=O)NC(=O)c2c1,"hansch,c et al. (1995) ",0.55,9,8,2,2,0,0,0,0,0,0,,13,
3-ethoxypyridazine,C6H8N2O1,062567-44-6,CCOc1cccnn1,"yamagami,c et al. (1990) ",0.63,6,8,2,1,0,0,0,0,0,0,,9,
1-(2-methyl-3-sulfanylpropanoyl)pyrrolidine-2-carboxylic acid,C9H15N1O3S1,062571-86-2,CC(CS)C(=O)N1CCCC1C(O)=O,"ranadive,sa et al. (1992) ",0.34,9,15,1,3,1,0,0,0,0,0,,14,
"hydrazinecarboxamide, n-(4-methylphenyl)-",C8H11N3O1,062774-57-6,Cc1ccc(NC(=O)NN)cc1,"kramer,cr & beck,l (1981) ",0.69,8,11,3,1,0,0,0,0,0,0,,12,
"hydrazinecarboxamide, n-(2-methoxyphenyl)-",C8H11N3O2,062774-58-7,COc1ccccc1NC(=O)NN,"kramer,cr & beck,l (1981) ",-0.15,8,11,3,2,0,0,0,0,0,0,,13,
"hydrazinecarboxamide, n-(4-methoxyphenyl)-",C8H11N3O2,062774-59-8,COc1ccc(NC(=O)NN)cc1,"kramer,cr & beck,l (1981) ",0.17,8,11,3,2,0,0,0,0,0,0,,13,
n-methyl-n-[(3-methylphenyl)methyl]nitrous amide,C9H12N2O1,062783-49-7,CN(Cc1cccc(C)c1)N=O,"singer,gm et al. (1986) ",1.96,9,12,2,1,0,0,0,0,0,0,,12,
n-methyl-n-[(4-methylphenyl)methyl]nitrous amide,C9H12N2O1,062783-50-0,CN(Cc1ccc(C)cc1)N=O,"singer,gm et al. (1986) ",2.14,9,12,2,1,0,0,0,0,0,0,,12,
s-[4-(phenoxy)butyl] dimethylaminomethanethioate,C13H19N1O2S1,062850-32-2,CN(C)C(=O)SCCCCOc1ccccc1,"tomlin,c (1994) ",3.28,13,19,1,2,1,0,0,0,0,0,,17,
cefoperazone,C25H27N9O8S2,062893-19-0,CCN1CCN(C(=O)N[C@@H](C(=O)N[C@H]2[C@H]3SCC(=C(N3C2=O)C(O)=O)CSc4nnnn4C)c5ccc(O)cc5)C(=O)C1=O,"hansch,c et al. (1995) ",-0.74,25,27,9,8,2,0,0,0,0,0,,44,
flumetralin,C16H12Cl1F4N3O4,062924-70-3,CCN(Cc1c(F)cccc1Cl)c2c(cc(cc2[N+]([O-])=O)C(F)(F)F)[N+]([O-])=O,"tomlin,c (1997) ",5.45,16,12,3,4,0,0,4,1,0,0,,28,
8-formylamidoquinoline,C10H8N2O1,062937-22-8,O=CNc1cccc2cccnc12,"hansch,c et al. (1995) ",1.8,10,8,2,1,0,0,0,0,0,0,,13,
azanidazole,C10H10N6O2,062973-76-6,Cn1c(\C=C\c2ccnc(N)n2)ncc1[N+]([O-])=O,sangster (1993) ,0.85,10,10,6,2,0,0,0,0,0,0,,18,
pentyl n-phenylcarbamate,C12H17N1O2,063075-06-9,CCCCCOC(=O)Nc1ccccc1,"hansch,c et al. (1995) ",3.8,12,17,1,2,0,0,0,0,0,0,,15,
n-(2-dimethylaminoethyl)benzamide,C11H16N2O1,063224-18-0,CN(C)CCNC(=O)c1ccccc1,"hansch,c et al. (1995) ",1.1,11,16,2,1,0,0,0,0,0,0,,14,
"acetic acid, 2,2,2-trichloro-1-(4-methoxyphenyl)",C11H11Cl3O3,063253-20-3,CC(=O)OC(C(Cl)(Cl)Cl)c1ccc(OC)cc1,"hu,j & leng,xf (1992) ",3.72,11,11,0,3,0,0,0,3,0,0,,17,
"5-pyrimidinemethanol, .alpha.-(2-chlorophenyl)-.",C17H12Cl1F1N2O1,063284-71-9,C(O)(c2cncnc2)(c3ccccc3Cl)c1ccc(F)cc1,"tomlin,c (1994) ",3.18,17,12,2,1,0,0,1,1,0,0,,22,
"2-imidazolidinimine, n-[2,6-bis(1-methylethyl)ph",C15H23N3,063346-74-7,CC(C)c1c(NC2NCCN=2)c(C(C)C)ccc1,sangster (1993) ,3.04,15,23,3,0,0,0,0,0,0,0,,18,
"2-(hydroxymethyl)-6-propylsulfanyloxane-3,4,5-triol",C9H18O5S1,063407-51-2,CCCSC1OC(CO)C(O)C(O)C1O,"hansch,c & leo,aj (1985) ",-1.18,9,18,0,5,1,0,0,0,0,0,,15,
"2-(hydroxymethyl)-6-(2-phenylethylsulfanyl)oxane-3,4,5-triol",C14H20O5S1,063407-54-5,OCC1OC(SCCc2ccccc2)C(O)C(O)C1O,"hansch,c & leo,aj (1985) ",-0.1,14,20,0,5,1,0,0,0,0,0,,20,
1-(tert-butylamino)-3-(phenylmethoxy)propan-2-ol,C14H23N1O2,063474-05-5,CC(C)(C)NCC(O)COCc1ccccc1,"mauleon,d et al. (1988) ",1.7,14,23,1,2,0,0,0,0,0,0,,17,
1-tert-butyl-3-hydroxyurea,C5H12N2O2,063491-77-0,CC(C)(C)NC(=O)NO,"hansch,c et al. (1995) ",0.5,5,12,2,2,0,0,0,0,0,0,,9,
"2,4,4',6-tetrachlorodiphenyl ether",C12H6Cl4O1,063553-30-0,Clc1ccc(Oc2c(Cl)cc(Cl)cc2Cl)cc1,"kurz,j & ballschmiter,k (1999) ",5.92,12,6,0,1,0,0,0,4,0,0,,17,
"14-benzdiazepin-2-one,5-(2-brph)7-cl",C15H10Br1Cl1N2O1,063574-83-4,Brc3ccccc3C1c2cc(Cl)ccc2NC(=O)CN=1,"hansch,c & leo,aj (1985) ",3.17,15,10,2,1,0,0,0,1,1,0,,20,
2-chloro-1-methyl-4-nitro-1h-imidazole,C4H4Cl1N3O2,063634-21-9,Cn1cc(nc1Cl)[N+]([O-])=O,"suwinski,j et al. (1985) ",0.19,4,4,3,2,0,0,0,1,0,0,,10,
"3,4,4'-trichlorodiphenyl ether",C12H7Cl3O1,063646-51-5,Clc1c(Cl)ccc(Oc2ccc(Cl)cc2)c1,"kurz,j & ballschmiter,k (1999) ",5.88,12,7,0,1,0,0,0,3,0,0,,16,
"2,3,4',5,6-pentachlorodiphenylether",C12H5Cl5O1,063646-55-9,c1c(Cl)ccc(Oc2c(Cl)c(Cl)cc(Cl)c2Cl)c1,"kurz,j & ballschmiter,k (1999) ",6.41,12,5,0,1,0,0,0,5,0,0,,18,
2-amino-3h-benzimidazole-5-carbonitrile,C8H6N4,063655-40-3,C1=CC2=C(C=C1C#N)NC(=N2)N,"hansch,c et al. (1995) ",1.13,8,6,4,0,0,0,0,0,0,0,,12,
1-[4-[2-(cyclopropylmethoxy)ethyl]phenoxy]-3-(propan-2-ylamino)propan-2-ol,C18H29N1O3,063659-18-7,CC(C)NCC(O)COc1ccc(CCOCC2CC2)cc1,"recanatini,m (1992) ",2.81,18,29,1,3,0,0,0,0,0,0,,22,
flamprop-m-methyl,C17H15Cl1F1N1O3,063729-98-6,COC(=O)[C@@H](C)N(C(=O)c1ccccc1)c2ccc(F)c(Cl)c2,"tomlin,c (1997) ",3,17,15,1,3,0,0,1,1,0,0,,23,
flamprop-m-isopropyl,C19H19Cl1F1N1O3,063782-90-1,CC(C)OC(=O)[C@@H](C)N(C(=O)c1ccccc1)c2ccc(F)c(Cl)c2,"tomlin,c (1997) ",3.69,19,19,1,3,0,0,1,1,0,0,,25,
"2-ethyl-4-[[4-(phenoxy)phenoxy]methyl]-1,3-dioxolane",C18H20O4,063837-33-2,CCC1OCC(COc2ccc(Oc3ccccc3)cc2)O1,"tomlin,c (1994) ",4.35,18,20,0,4,0,0,0,0,0,0,,22,
"n,n-dimethylthieno[3,2-e]pyrimidin-4-amine",C8H9N3S1,063893-52-7,CN(C)c1ncnc2sccc12,"hansch,c & leo,aj (1985) ",1.82,8,9,3,0,1,0,0,0,0,0,,12,
1-butan-2-ylbenzotriazole,C10H13N3,063936-04-9,CCC(C)n1nnc2ccccc12,"hansch,c & leo,aj (1985) ",2.31,10,13,3,0,0,0,0,0,0,0,,13,
1-phenylpentan-2-amine,C11H17N1,063951-01-9,CCCC(N)Cc1ccccc1,"hansch,c et al. (1995) ",2.79,11,17,1,0,0,0,0,0,0,0,,12,
3-propan-2-yl-3h-2-benzofuran-1-one,C11H12O2,064002-57-9,CC(C)C1OC(=O)c2ccccc12,"hansch,c & leo,aj (1985) ",2.1,11,12,0,2,0,0,0,0,0,0,,13,
"n-(n-me-ethoxycarbamylthio)methomyl""",C9H17N3O4S2,064028-99-5,CC(=NOC(=O)N(C)SN(C)C(=O)OCC)SC,"hansch,c & leo,aj (1985) ",1.9,9,17,3,4,2,0,0,0,0,0,,18,
"n(n-me-tbuo carbamylthio)methomyl""",C11H21N3O4S2,064029-01-2,CC(=NOC(=O)N(C)SN(C)C(=O)OC(C)(C)C)SC,"hansch,c & leo,aj (1985) ",2.8,11,21,3,4,2,0,0,0,0,0,,20,
"ethanimidothioic acid, n-[[[[(methoxycarbonylmet",C8H15N3O4S2,064055-10-3,CC(=NOC(=O)N(C)SN(C)C(=O)OC)SC,sangster (1993) ,1.4,8,15,3,4,2,0,0,0,0,0,,17,
"n-butyl-5-fluoro-2,4-dioxopyrimidine-1-carboxamide",C9H12F1N3O3,064098-82-4,CCCCNC(=O)N1C=C(F)C(=O)NC1=O,sangster (1993) ,1.44,9,12,3,3,0,0,1,0,0,0,,16,
"phenylacetic acid,2-(2',6'-dichloro-4'-hydroxy)a",C14H11Cl2N1O3,064118-84-9,Clc2cc(O)cc(Cl)c2Nc1ccccc1CC(=O)O,"hansch,c et al. (1995) ",3.7,14,11,1,3,0,0,0,2,0,0,,20,
"n-[4,6-bis(dimethylamino)-1,3,5-triazin-2-yl]-n-methylhydroxylamine",C8H16N6O1,064124-14-7,CN(C)c1nc(nc(n1)N(C)O)N(C)C,sangster (1993) ,1.61,8,16,6,1,0,0,0,0,0,0,,15,
"n2,n4,n6-triethyl-n2,n4,n6-trimethyl-1,3,5-triazine-2,4,6-triamine",C12H24N6,064124-20-5,CCN(C)c1nc(nc(n1)N(C)CC)N(C)CC,"hansch,c & leo,aj (1985) ",3.9,12,24,6,0,0,0,0,0,0,0,,18,
"[[4,6-bis(hydroxymethyl-methylamino)-1,3,5-triazin-2-yl]-methylamino]methanol",C9H18N6O3,064124-21-6,CN(CO)c1nc(nc(n1)N(C)CO)N(C)CO,biobyte (1995) ,0.4,9,18,6,3,0,0,0,0,0,0,,18,
plaunotol,C20H34O2,064218-02-6,CC(C)=CCC/C(C)=C/CC\C(CO)=C\CC\C(C)=C\CO,biobyte starlist (2009) ,4.7,20,34,0,2,0,0,0,0,0,0,,22,
1-methylpyrrole-2-carboxamide,C6H8N2O1,064230-41-7,Cn1cccc1C(N)=O,"yamagami,c et al. (1994) ",0.45,6,8,2,1,0,0,0,0,0,0,,9,
anilofos,C13H19Cl1N1O3P1S2,064249-01-0,CO[P](=S)(OC)SCC(=O)N(C(C)C)c1ccc(Cl)cc1,"tomlin,c (1994) ",3.81,13,19,1,3,2,1,0,1,0,0,,21,
azanylidyne-hydroxysulfanylmethane,C1H1N1O1S1,064253-39-0,OSC#N,sangster (1993) ,0.32,1,1,1,1,1,0,0,0,0,0,,4,
"pregna-1,4-diene-3,20-dione, 2,9-dichloro-21-(2,",C27H35Cl2F1O6,064272-13-5,CC1CC2C3CC(C4=CC(=O)C(=CC4(C3(C(CC2(C1(C(=O)COC(=O)C(C)(C)C)O)C)O)Cl)C)Cl)F,sangster (1993) ,4.73,27,35,0,6,0,0,1,2,0,0,,36,
"phenylmethyl 2,2-dimethyl-3-(2-methylprop-1-enyl)cyclopropane-1-carboxylate",C17H22O2,064312-78-3,CC(C)=CC1C(C(=O)OCc2ccccc2)C1(C)C,"hansch,c et al. (1995) ",5.49,17,22,0,2,0,0,0,0,0,0,,19,
"phenylacetic acid,3-me-4-phmeo",C16H16O3,064360-42-5,Cc1c(OCc2ccccc2)ccc(CC(=O)(O))c1,"hansch,c et al. (1995) ",3.37,16,16,0,3,0,0,0,0,0,0,,19,
cyanoimino-(3-methylphenyl)-oxidoazanium,C8H7N3O1,064462-06-2,Cc1cccc(c1)[N+]([O-])=NC#N,"calvino,r et al. (1991) ",2.49,8,7,3,1,0,0,0,0,0,0,,12,
cefuroxime axetil,C20H22N4O10S1,064544-07-6,CO/N=C(C(=O)N[C@H]1[C@H]2SCC(=C(N2C1=O)C(=O)OC(C)OC(C)=O)COC(N)=O)/c3occc3,"hansch,c et al. (1995) ",0.89,20,22,4,10,1,0,0,0,0,0,,35,
octachlorobornane (parlar 39),C10H10Cl8,not,C(Cl)C1(CCl)C2(CCl)C(Cl)(Cl)C(Cl)C1C(Cl)C2Cl,"fisk,at et al. (1999) ",5.74,10,10,0,0,0,0,0,8,0,0,,18,
triflumuron,C15H10Cl1F3N2O3,064628-44-0,FC(F)(F)Oc1ccc(NC(=O)NC(=O)c2ccccc2Cl)cc1,"tomlin,c (1997) ",4.91,15,10,2,3,0,0,3,1,0,0,,24,
"1-(2,5-dimethoxy-4-propylphenyl)propan-2-amine",C14H23N1O2,064638-08-0,CCCc1cc(OC)c(CC(C)N)cc1OC,"hansch,c et al. (1995) ",3.37,14,23,1,2,0,0,0,0,0,0,,17,
"1-(4-butyl-2,5-dimethoxyphenyl)propan-2-amine",C15H25N1O2,064638-09-1,CCCCc1cc(OC)c(CC(C)N)cc1OC,sangster (1993) ,4,15,25,1,2,0,0,0,0,0,0,,18,
"2,5-dimethoxy-4-pentylamphetamine",C16H27N1O2,064638-10-4,CCCCCc1cc(OC)c(CC(C)N)cc1OC,"hansch,c et al. (1995) ",4.43,16,27,1,2,0,0,0,0,0,0,,19,
(2-amino-2-oxoethyl) benzoate,C9H9N1O3,064649-43-0,NC(=O)COC(=O)c1ccccc1,"nielsen,nm & bundgaard,h (1988) ",0.69,9,9,1,3,0,0,0,0,0,0,,13,
(2-ethylamino-2-oxoethyl) benzoate,C11H13N1O3,064649-57-6,CCNC(=O)COC(=O)c1ccccc1,"nielsen,nm & bundgaard,h (1988) ",1.28,11,13,1,3,0,0,0,0,0,0,,15,
(2-diethylamino-2-oxoethyl) benzoate,C13H17N1O3,064649-63-4,CCN(CC)C(=O)COC(=O)c1ccccc1,"nielsen,nm & bundgaard,h (1988) ",2.06,13,17,1,3,0,0,0,0,0,0,,17,
4-(2-hydroxyethoxy)-3-methoxybenzaldehyde,C10H12O4,064673-04-7,COc1cc(C=O)ccc1OCCO,pomona (1987) ,0.58,10,12,0,4,0,0,0,0,0,0,,14,
"4-bromoiminocyclohexa-2,5-dien-1-one",C6H4Br1N1O1,064693-23-8,BrN=C1C=CC(=O)C=C1,"hansch,c et al. (1995) ",1.12,6,4,1,1,0,0,0,0,1,0,,9,
"2-(4-butoxy-3,5-dimethoxyphenyl)ethanamine",C14H23N1O3,064778-75-2,CCCCOc1c(OC)cc(CCN)cc1OC,"hansch,c et al. (1995) ",2.32,14,23,1,3,0,0,0,0,0,0,,18,
"1-(4-bromo-3,5-dimethoxyphenyl)propan-2-amine",C11H16Br1N1O2,064778-79-6,COc1cc(CC(C)N)cc(OC)c1Br,"hansch,c et al. (1995) ",2.44,11,16,1,2,0,0,0,0,1,0,,15,
"5-ethyl-5-octyl-1,3-diazinane-2,4,6-trione",C14H24N2O3,064810-90-8,CCCCCCCCC1(CC)C(=O)NC(=O)NC1=O,"yih,td & van rossum,jm (1977) ",3.78,14,24,2,3,0,0,0,0,0,0,,19,
"5-ethyl-5-nonyl-1,3-diazinane-2,4,6-trione",C15H26N2O3,064810-91-9,CCCCCCCCCC1(CC)C(=O)NC(=O)NC1=O,"yih,td & van rossum,jm (1977) ",4,15,26,2,3,0,0,0,0,0,0,,20,
"n-(4-bromo-3,5-dimethylphenyl)acetamide",C10H12Br1N1O1,064835-48-9,CC(=O)Nc1cc(C)c(Br)c(C)c1,"nakagawa,y et al. (1992) ",3.28,10,12,1,1,0,0,0,0,1,0,,13,
chlorsulfuron,C12H12Cl1N5O4S1,064902-72-3,COc1nc(C)nc(NC(=O)N[S](=O)(=O)c2ccccc2Cl)n1,"ribo,jm (1988) ",2,12,12,5,4,1,0,0,1,0,0,,23,
moxalactam,C20H20N6O9S1,064952-97-2,CO[C@]1(NC(=O)C(C(O)=O)c2ccc(O)cc2)[C@H]3OCC(=C(N3C1=O)C(O)=O)CSc4nnnn4C,biobyte (1995) ,-0.58,20,20,6,9,1,0,0,0,0,0,,36,
1-(tert-butylamino)-3-(phenoxy)propan-2-ol,C13H21N1O2,064980-40-1,CC(C)(C)NCC(O)COc1ccccc1,"mauleon,d et al. (1988) ",1.5,13,21,1,2,0,0,0,0,0,0,,16,
"6-[3-(trifluoromethylsulfanyl)phenyl]-1,3,5-triazine-2,4-diamine",C10H8F3N5S1,065052-47-3,Nc1nc(N)nc(n1)c2cccc(SC(F)(F)F)c2,"hansch,c et al. (1995) ",3.2,10,8,5,0,1,0,3,0,0,0,,19,
"2,4',5-trichlorodiphenyl ether",C12H7Cl3O1,065075-00-5,c1c(Cl)ccc(Oc2c(Cl)ccc(Cl)c2)c1,"kurz,j & ballschmiter,k (1999) ",5.66,12,7,0,1,0,0,0,3,0,0,,16,
"2,3,4,4'-tetrachlorodiphenyl ether",C12H6Cl4O1,065075-01-6,c1c(Cl)ccc(Oc2c(Cl)c(Cl)c(Cl)cc2)c1,"kurz,j & ballschmiter,k (1999) ",6.14,12,6,0,1,0,0,0,4,0,0,,17,
"2,2',3,3',4,4',5,6-octachloro-diph ether",C12H2Cl8O1,065075-02-7,c1c(Cl)c(Cl)c(Cl)c(Oc2c(Cl)c(Cl)c(Cl)c(Cl)c2Cl)c1,"kurz,j & ballschmiter,k (1999) ",7.84,12,2,0,1,0,0,0,8,0,0,,21,
1-(1-adamantyl)-3-[bis(aziridin-1-yl)phosphoryl]urea,C15H25N4O2P1,065101-39-5,O=C(NC12CC3CC(CC(C3)C1)C2)N[P](=O)(N4CC4)N5CC5,"sosnovsky,g et al. (1986) ",1.81,15,25,4,2,0,1,0,0,0,0,,22,
2-[(2-acetamido-3-phenylpropanoyl)amino]-3-methylbutanamide,C16H23N3O3,065118-48-1,CC(C)C(NC(=O)C(Cc1ccccc1)NC(C)=O)C(N)=O,"hansch,c et al. (1995) ",0.43,16,23,3,3,0,0,0,0,0,0,,22,
"n-(4-methyl-1,2,5-oxadiazol-3-yl)acetamide",C5H7N3O2,065225-88-9,CC(=O)Nc1nonc1C,"calvino,r et al. (1992) ",0.17,5,7,3,2,0,0,0,0,0,0,,10,
"cefmenoxime,pivaloyl-ome ester",C22H27N9O7S3,065243-35-8,Cn4nnnc4SCC1CSC2C(NC(=O)C(=NOC)c3csc(N)n3)C(=O)N2C=1C(=O)OCOC(=O)C(C),"hansch,c et al. (1995) ",1.74,22,27,9,7,3,0,0,0,0,0,,41,
"7-bromo-5-(2-bromophenyl)-1,3-dihydro-1,4-benzodiazepin-2-one",C15H10Br2N2O1,065247-10-1,Brc1ccc2NC(=O)CN=C(c3ccccc3Br)c2c1,"hansch,c & leo,aj (1985) ",3.3,15,10,2,1,0,0,0,0,2,0,,20,
"7-bromo-5-(3-bromophenyl)-1,3-dihydro-1,4-benzodiazepin-2-one",C15H10Br2N2O1,065247-11-2,Brc1cccc(c1)C2=NCC(=O)Nc3ccc(Br)cc23,"hansch,c & leo,aj (1985) ",3.88,15,10,2,1,0,0,0,0,2,0,,20,
"7-bromo-5-(4-bromophenyl)-1,3-dihydro-1,4-benzodiazepin-2-one",C15H10Br2N2O1,065247-12-3,Brc1ccc(cc1)C2=NCC(=O)Nc3ccc(Br)cc23,"hansch,c & leo,aj (1985) ",4.04,15,10,2,1,0,0,0,0,2,0,,20,
"14-benzdiazepin-2-one,5-(3-clph)7-br",C15H10Br1Cl1N2O1,065247-13-4,Brc1ccc2c(C(c3cccc(Cl)c3)=NCC(=O)N2)c1,"hansch,c & leo,aj (1985) ",3.63,15,10,2,1,0,0,0,1,1,0,,20,
"14-benzdiazepin-2-one,5-(4-clph)7-br",C15H10Br1Cl1N2O1,065247-14-5,Brc1ccc2c(C(c3ccc(Cl)cc3)=NCC(=O)N2)c1,"hansch,c & leo,aj (1985) ",3.78,15,10,2,1,0,0,0,1,1,0,,20,
"n,n-dimethyl-3-(phenoxy)benzamide",C15H15N1O2,065261-13-4,CN(C)C(=O)c1cccc(Oc2ccccc2)c1,sangster (1994) ,2.57,15,15,1,2,0,0,0,0,0,0,,18,
"piperazine, 1-acetyl-4-[4-[[2-(2,4-dichloropheny",C26H28Cl2N4O4,065277-42-1,C1(Cn4ccnc4)(c5ccc(Cl)cc5Cl)OCC(COc2ccc(N3CCN(C(=O)(C))CC3)cc2)O1,sangster (1993) ,4.35,26,28,4,4,0,0,0,2,0,0,,36,
"5-propan-2-yl-1,3,4-oxadiazol-2-amine",C5H9N3O1,065283-97-8,CC(C)c1oc(N)nn1,"hansch,c & leo,aj (1985) ",0.2,5,9,3,1,0,0,0,0,0,0,,9,
4-[2-(4-nitrophenoxy)ethyl]morpholine,C12H16N2O4,065300-53-0,[O-][N+](=O)c1ccc(OCCN2CCOCC2)cc1,"hansch,c et al. (1995) ",1.54,12,16,2,4,0,0,0,0,0,0,,18,
2-morpholin-4-ylethyl n-(2-propoxyphenyl)carbamate,C16H24N2O4,065347-84-4,CCCOc1ccccc1NC(=O)OCCN2CCOCC2,biobyte (1995) ,2.78,16,24,2,4,0,0,0,0,0,0,,22,
2-morpholin-4-ylethyl n-(2-butoxyphenyl)carbamate,C17H26N2O4,065347-85-5,CCCCOc1ccccc1NC(=O)OCCN2CCOCC2,biobyte (1995) ,3.25,17,26,2,4,0,0,0,0,0,0,,23,
2-morpholin-4-ylethyl n-(2-pentoxyphenyl)carbamate,C18H28N2O4,065347-86-6,CCCCCOc1ccccc1NC(=O)OCCN2CCOCC2,biobyte (1995) ,3.7,18,28,2,4,0,0,0,0,0,0,,24,
2-morpholin-4-ylethyl n-(2-hexoxyphenyl)carbamate,C19H30N2O4,065347-87-7,CCCCCCOc1ccccc1NC(=O)OCCN2CCOCC2,biobyte (1995) ,4.24,19,30,2,4,0,0,0,0,0,0,,25,
2-morpholin-4-ylethyl n-(2-heptoxyphenyl)carbamate,C20H32N2O4,065347-88-8,CCCCCCCOc1ccccc1NC(=O)OCCN2CCOCC2,biobyte (1995) ,4.51,20,32,2,4,0,0,0,0,0,0,,26,
2-morpholin-4-ylethyl n-(3-propoxyphenyl)carbamate,C16H24N2O4,065347-90-2,CCCOc1cccc(NC(=O)OCCN2CCOCC2)c1,biobyte (1995) ,3.04,16,24,2,4,0,0,0,0,0,0,,22,
2-morpholin-4-ylethyl n-(3-butoxyphenyl)carbamate,C17H26N2O4,065347-91-3,CCCCOc1cccc(NC(=O)OCCN2CCOCC2)c1,biobyte (1995) ,3.62,17,26,2,4,0,0,0,0,0,0,,23,
2-morpholin-4-ylethyl n-(3-pentoxyphenyl)carbamate,C18H28N2O4,065347-92-4,CCCCCOc1cccc(NC(=O)OCCN2CCOCC2)c1,biobyte (1995) ,4.13,18,28,2,4,0,0,0,0,0,0,,24,
2-morpholin-4-ylethyl n-(3-hexoxyphenyl)carbamate,C19H30N2O4,065347-93-5,CCCCCCOc1cccc(NC(=O)OCCN2CCOCC2)c1,biobyte (1995) ,4.73,19,30,2,4,0,0,0,0,0,0,,25,
2-morpholin-4-ylethyl n-(3-heptoxyphenyl)carbamate,C20H32N2O4,065347-94-6,CCCCCCCOc1cccc(NC(=O)OCCN2CCOCC2)c1,biobyte (1995) ,5.28,20,32,2,4,0,0,0,0,0,0,,26,
2-morpholin-4-ylethyl n-(4-propoxyphenyl)carbamate,C16H24N2O4,065347-96-8,CCCOc1ccc(NC(=O)OCCN2CCOCC2)cc1,biobyte (1995) ,2.78,16,24,2,4,0,0,0,0,0,0,,22,
2-morpholin-4-ylethyl n-(4-butoxyphenyl)carbamate,C17H26N2O4,065347-97-9,CCCCOc1ccc(NC(=O)OCCN2CCOCC2)cc1,biobyte (1995) ,3.35,17,26,2,4,0,0,0,0,0,0,,23,
2-morpholin-4-ylethyl n-(4-hexoxyphenyl)carbamate,C19H30N2O4,065347-98-0,CCCCCCOc1ccc(NC(=O)OCCN2CCOCC2)cc1,biobyte (1995) ,4.51,19,30,2,4,0,0,0,0,0,0,,25,
2-morpholin-4-ylethyl n-(4-heptoxyphenyl)carbamate,C20H32N2O4,065347-99-1,CCCCCCCOc1ccc(NC(=O)OCCN2CCOCC2)cc1,biobyte (1995) ,4.96,20,32,2,4,0,0,0,0,0,0,,26,
2-morpholin-4-ylethyl n-(4-octoxyphenyl)carbamate,C21H34N2O4,065348-00-7,CCCCCCCCOc1ccc(NC(=O)OCCN2CCOCC2)cc1,sangster (1994) ,4.8,21,34,2,4,0,0,0,0,0,0,,27,
"2-(3,4-dihydroxyphenyl)-3-methoxychroman-5,7-diol",C16H16O6,065350-86-9,COC1Cc2c(O)cc(O)cc2OC1c3ccc(O)c(O)c3,biobyte starlist (2009) ,1,16,16,0,6,0,0,0,0,0,0,,22,
2-morpholin-4-ylethyl n-(4-pentoxyphenyl)carbamate,C18H28N2O4,065374-46-1,CCCCCOc1ccc(NC(=O)OCCN2CCOCC2)cc1,biobyte (1995) ,3.96,18,28,2,4,0,0,0,0,0,0,,24,
"3,5-dimethyl-1-nitrosopiperidine",C7H14N2O1,065445-59-2,CC1CC(C)CN(C1)N=O,"hansch,c et al. (1995) ",1.53,7,14,2,1,0,0,0,0,0,0,,10,
n-(4-ethylphenyl)-2-piperidin-1-ylacetamide,C15H22N2O1,065446-98-2,CCc1ccc(NC(=O)CN2CCCCC2)cc1,sangster (1993) ,3.52,15,22,2,1,0,0,0,0,0,0,,18,
methyl n-(3-cyanophenyl)carbamate,C9H8N2O2,065448-74-0,COC(=O)Nc1cccc(c1)C#N,"takahashi,k et al. (1988) ",1.77,9,8,2,2,0,0,0,0,0,0,,13,
"pregna-1,4-diene-3,20-dione, 2-chloro-6,9-difluo",C24H29Cl1F2O6,065466-50-4,O=C1C(Cl)=CC2(C)C3(F)C(O)CC4(C)C5(C(=O)CO)OC(C)(C)OC5CC4C3CC(F)C2=C1,pomona (1987) ,2.99,24,29,0,6,0,0,2,1,0,0,,33,
5-(4-methoxyphenyl)-4-methyldithiole-3-thione,C11H10O1S3,065490-84-8,COc1ccc(cc1)C2=C(C)C(=S)SS2,"bona,m et al. (1995) ",4.1,11,10,0,1,3,0,0,0,0,0,,15,