Names,Formula,CAS No,SMILES,Reference,Exp logp,C,H,N,O,S,P,F,Cl,Br,I,,,
2-(4-methoxyphenyl)acetic acid,C9H10O3,000104-01-8,COc1ccc(CC(O)=O)cc1,"hansch,c et al. (1995) ",1.42,9,10,0,3,0,0,0,0,0,0,,12,
2-(4-nitrophenyl)acetic acid,C8H7N1O4,000104-03-0,OC(=O)Cc1ccc(cc1)[N+]([O-])=O,"hansch,c et al. (1995) ",1.39,8,7,1,4,0,0,0,0,0,0,,13,
n-(4-nitrophenyl)acetamide,C8H8N2O3,000104-04-1,CC(=O)Nc1ccc(cc1)[N+]([O-])=O,"hansch,c et al. (1995) ",1.66,8,8,2,3,0,0,0,0,0,0,,13,
2-(4-aminophenyl)ethanol,C8H11N1O1,000104-10-9,Nc1ccc(CCO)cc1,"hansch,c et al. (1995) ",0.1,8,11,1,1,0,0,0,0,0,0,,10,
4-butylaniline,C10H15N1,000104-13-2,CCCCc1ccc(N)cc1,"martin-villodre,a et al. (1986) ",3.05,10,15,1,0,0,0,0,0,0,0,,11,
4-(2-amino-1-hydroxyethyl)phenol,C8H11N1O2,000104-14-3,NCC(O)c1ccc(O)cc1,sangster (1994) ,-0.9,8,11,1,2,0,0,0,0,0,0,,11,
2-[2-[2-[2-[2-[2-[2-[2-(2-methoxyethoxy)ethoxy]ethoxy]ethoxy]ethoxy]ethoxy]ethoxy]ethoxy]ethyl 4-butylaminobenzoate,C30H53N1O11,000104-31-4,CCCCNc1ccc(cc1)C(=O)OCCOCCOCCOCCOCCOCCOCCOCCOCCOC,"hansch,c et al. (1995) ",2.45,30,53,1,11,0,0,0,0,0,0,,42,
4-nonylphenol,C15H24O1,000104-40-5,CCCCCCCCCc1ccc(O)cc1,"itokawa,h et al. (1989) ",5.76,15,24,0,1,0,0,0,0,0,0,,16,
4-dodecylphenol,C18H30O1,000104-43-8,CCCCCCCCCCCCc1ccc(O)cc1,"itokawa,h et al. (1989) ",7.91,18,30,0,1,0,0,0,0,0,0,,19,
2-(4-methoxyphenyl)acetonitrile,C9H9N1O1,000104-47-2,COc1ccc(CC#N)cc1,"hansch,c et al. (1995) ",1.7,9,9,1,1,0,0,0,0,0,0,,11,
butylbenzene,C10H14,000104-51-8,CCCCc1ccccc1,"debruijn,j et al. (1989) ",4.38,10,14,0,0,0,0,0,0,0,0,,10,
3-phenyl-1-chloropropane,C9H11Cl1,000104-52-9,ClCCCc1ccccc1,"hansch,c et al. (1995) ",3.55,9,11,0,0,0,0,0,1,0,0,,10,
cinnamyl alcohol,C9H10O1,000104-54-1,OCC=Cc1ccccc1,"hansch,c et al. (1995) ",1.95,9,10,0,1,0,0,0,0,0,0,,10,
3-phenyl-2-propenal,C9H8O1,000104-55-2,O=CC=Cc1ccccc1,"hansch,c et al. (1995) ",1.9,9,8,0,1,0,0,0,0,0,0,,10,
2-(phenylmethylamino)ethanol,C9H13N1O1,000104-63-2,OCCNCc1ccccc1,"hansch,c et al. (1995) ",0.79,9,13,1,1,0,0,0,0,0,0,,11,
2-(phenoxy)ethoxybenzene,C14H14O2,000104-66-5,C(COc1ccccc1)Oc2ccccc2,"hansch,c et al. (1995) ",3.81,14,14,0,2,0,0,0,0,0,0,,16,
decylbenzene,C16H26,000104-72-3,CCCCCCCCCCc1ccccc1,sangster (1993) ,7.35,16,26,0,0,0,0,0,0,0,0,,16,
2-ethylhexan-1-amine,C8H19N1,000104-75-6,CCCCC(CC)CN,"hansch,c et al. (1995) ",2.82,8,19,1,0,0,0,0,0,0,0,,9,
"benzene, 1-chloro-4-(chloromethyl)-",C7H6Cl2,000104-83-6,ClCc1ccc(Cl)cc1,"wang,w et al. (1987) ",3.18,7,6,0,0,0,0,0,2,0,0,,9,
(4-methylphenyl)methanamine,C8H11N1,000104-84-7,Cc1ccc(CN)cc1,"kril,mb & fung,hl (1990) ",1.46,8,11,1,0,0,0,0,0,0,0,,9,
4-chlorobenzaldehyde,C7H5Cl1O1,000104-88-1,Clc1ccc(C=O)cc1,"hansch,c et al. (1995) ",2.1,7,5,0,1,0,0,0,1,0,0,,9,
4-nitrosophenol,C6H5N1O2,000104-91-6,Oc1ccc(cc1)N=O,"hansch,c et al. (1995) ",1.29,6,5,1,2,0,0,0,0,0,0,,9,
1-bromo-4-methoxybenzene,C7H7Br1O1,000104-92-7,COc1ccc(Br)cc1,"dunn,wj et al. (1983) ",3.05,7,7,0,1,0,0,0,0,1,0,,9,
1-methoxy-4-methylbenzene,C8H10O1,000104-93-8,COc1ccc(C)cc1,"hansch,c et al. (1995) ",2.66,8,10,0,1,0,0,0,0,0,0,,9,
4-methoxyaniline,C7H9N1O1,000104-94-9,COc1ccc(N)cc1,"hansch,c et al. (1995) ",0.95,7,9,1,1,0,0,0,0,0,0,,9,
"1,4-diethylbenzene",C10H14,000105-05-5,CCc1ccc(CC)cc1,"sherblom,pm & eganhouse,rp (1988) ",4.58,10,14,0,0,0,0,0,0,0,0,,10,
"2,5-cyclohexadiene-1,4-dione, dioxime",C6H6N2O2,000105-11-3,ON=C1C=CC(C=C1)=NO,"hansch,c et al. (1995) ",1.49,6,6,2,2,0,0,0,0,0,0,,10,
105-13-5,C8H10O2,000105-13-5,COc1ccc(CO)cc1,"hansch,c et al. (1995) ",1.1,8,10,0,2,0,0,0,0,0,0,,10,
methyl 2-cyanoacetate,C4H5N1O2,000105-34-0,COC(=O)CC#N,"hansch,c et al. (1995) ",-0.47,4,5,1,2,0,0,0,0,0,0,,7,
ethyl 2-bromoacetate,C4H7Br1O2,000105-36-2,CCOC(=O)CBr,"hansch,c et al. (1995) ",1.12,4,7,0,2,0,0,0,0,1,0,,7,
ethyl propanoate,C5H10O2,000105-37-3,CCOC(=O)CC,"hansch,c et al. (1995) ",1.21,5,10,0,2,0,0,0,0,0,0,,7,
ethyl chloroacetate,C4H7Cl1O2,000105-39-5,CCOC(=O)CCl,"hansch,c et al. (1995) ",0.94,4,7,0,2,0,0,0,1,0,0,,7,
ethyl n-methylcarbamate,C4H9N1O2,000105-40-8,CCOC(=O)NC,"hansch,c et al. (1995) ",0.34,4,9,1,2,0,0,0,0,0,0,,7,
butan-2-yl acetate,C6H12O2,000105-46-4,CCC(C)OC(C)=O,"hansch,c et al. (1995) ",1.72,6,12,0,2,0,0,0,0,0,0,,8,
diethyl propanedioate,C7H12O4,000105-53-3,CCOC(=O)CC(=O)OCC,pomona (1987) ,0.96,7,12,0,4,0,0,0,0,0,0,,11,
"1,3-diethylthiourea",C5H12N2S1,000105-55-5,CCNC(=S)NCC,"govers,h et al. (1986) ",0.57,5,12,2,0,1,0,0,0,0,0,,8,
"1,1-diethoxyethane",C6H14O2,000105-57-7,CCOC(C)OCC,"hansch,c et al. (1995) ",0.84,6,14,0,2,0,0,0,0,0,0,,8,
diethyl carbonate,C5H10O3,000105-58-8,CCOC(=O)OCC,"hansch,c et al. (1995) ",1.21,5,10,0,3,0,0,0,0,0,0,,8,
"2,4-dimethylphenol",C8H10O1,000105-67-9,Cc1ccc(O)c(C)c1,"hansch,c et al. (1995) ",2.3,8,10,0,1,0,0,0,0,0,0,,9,
neryl acetate,C12H20O2,000141-12-8,CC(=O)OC\C=C(\C)CCC=C(C)C,"griffin,s et al. (1999) ",3.98,12,20,0,2,0,0,0,0,0,0,,14,
butyl dodecanoate,C16H32O2,000106-18-3,CCCCCCCCCCCC(=O)OCCCC,"krop,hb et al. (1997) ",6.51,16,32,0,2,0,0,0,0,0,0,,18,
"3,7-dimethyloct-6-en-1-ol",C10H20O1,000106-22-9,CC(CCO)CCC=C(C)C,"griffin,s et al. (1999) ",3.91,10,20,0,1,0,0,0,0,0,0,,11,
"2,6-octadien-1-ol, 3,7-dimethyl-, (z)-",C10H18O1,000106-25-2,CC(C)=CCCC(/C)=C\CO,"griffin,s et al. (1999) ",3.47,10,18,0,1,0,0,0,0,0,0,,11,
ethyl dodecanoate,C14H28O2,000106-33-2,CCCCCCCCCCCC(=O)OCC,"krop,hb et al. (1997) ",5.71,14,28,0,2,0,0,0,0,0,0,,16,
"1,4-dibromobenzene",C6H4Br2,000106-37-6,Brc1ccc(Br)cc1,"hansch,c et al. (1995) ",3.79,6,4,0,0,0,0,0,0,2,0,,8,
1-bromo-4-methylbenzene,C7H7Br1,000106-38-7,Cc1ccc(Br)cc1,"dunn,wj et al. (1983) ",3.42,7,7,0,0,0,0,0,0,1,0,,8,
p-bromochlorobenzene,C6H4Br1Cl1,000106-39-8,Clc1ccc(Br)cc1,"dunn,wj et al. (1983) ",3.54,6,4,0,0,0,0,0,1,1,0,,8,
4-bromoaniline,C6H6Br1N1,000106-40-1,Nc1ccc(Br)cc1,"hansch,c et al. (1995) ",2.26,6,6,1,0,0,0,0,0,1,0,,8,
4-bromophenol,C6H5Br1O1,000106-41-2,Oc1ccc(Br)cc1,"hansch,c et al. (1995) ",2.59,6,5,0,1,0,0,0,0,1,0,,8,
"1,4-dimethylbenzene",C8H10,000106-42-3,Cc1ccc(C)cc1,"hansch,c et al. (1995) ",3.15,8,10,0,0,0,0,0,0,0,0,,8,
p-chlorotoluene,C7H7Cl1,000106-43-4,Cc1ccc(Cl)cc1,"hansch,c et al. (1995) ",3.33,7,7,0,0,0,0,0,1,0,0,,8,
4-methylphenol,C7H8O1,000106-44-5,Cc1ccc(O)cc1,"hansch,c et al. (1995) ",1.94,7,8,0,1,0,0,0,0,0,0,,8,
"1,4-dichlorobenzene",C6H4Cl2,000106-46-7,Clc1ccc(Cl)cc1,"hansch,c et al. (1995) ",3.44,6,4,0,0,0,0,0,2,0,0,,8,
4-chloroaniline,C6H6Cl1N1,000106-47-8,Nc1ccc(Cl)cc1,"hansch,c et al. (1995) ",1.83,6,6,1,0,0,0,0,1,0,0,,8,
4-chlorophenol,C6H5Cl1O1,000106-48-9,Oc1ccc(Cl)cc1,"hansch,c et al. (1995) ",2.39,6,5,0,1,0,0,0,1,0,0,,8,
4-methylaniline,C7H9N1,000106-49-0,Cc1ccc(N)cc1,"hansch,c et al. (1995) ",1.39,7,9,1,0,0,0,0,0,0,0,,8,
"benzene-1,4-diamine",C6H8N2,000106-50-3,Nc1ccc(N)cc1,"hansch,c et al. (1995) ",-0.3,6,8,2,0,0,0,0,0,0,0,,8,
"cyclohexa-2,5-diene-1,4-dione",C6H4O2,000106-51-4,O=C1C=CC(=O)C=C1,"hansch,c et al. (1995) ",0.2,6,4,0,2,0,0,0,0,0,0,,8,
"1,4-dimethylpiperazine",C6H14N2,000106-58-1,CN1CCN(C)CC1,"hansch,c et al. (1995) ",-0.4,6,14,2,0,0,0,0,0,0,0,,8,
2-(2-hydroxypropoxy)propan-1-ol,C6H14O3,000106-62-7,CC(O)COC(C)CO,pomona (1987) ,-0.67,6,14,0,3,0,0,0,0,0,0,,9,
2-methylpropyl prop-2-enoate,C7H12O2,000106-63-8,CC(C)COC(=O)C=C,"hansch,c et al. (1995) ",2.22,7,12,0,2,0,0,0,0,0,0,,9,
dimethyl butanedioate,C6H10O4,000106-65-0,COC(=O)CCC(=O)OC,"hansch,c et al. (1995) ",0.35,6,10,0,4,0,0,0,0,0,0,,10,
3-ethenyl-7-oxabicyclo[4.1.0]heptane,C8H12O1,000106-86-5,C=CC1CCC2OC2C1,sangster (1993) ,2.08,8,12,0,1,0,0,0,0,0,0,,9,
3-(oxiran-2-yl)-7-oxabicyclo[4.1.0]heptane,C8H12O2,000106-87-6,C1CC2OC2CC1C3CO3,sangster (1993) ,0.44,8,12,0,2,0,0,0,0,0,0,,10,
"1-chloro-2,3-epoxypropane",C3H5Cl1O1,000106-89-8,ClCC1CO1,"deneer,jw et al. (1988) ",0.45,3,5,0,1,0,0,0,1,0,0,,5,
"1,2-dibromoethyne",C2H4Br2,000106-93-4,BrC#CBr,"hansch,c et al. (1995) ",1.96,2,4,0,0,0,0,0,0,2,0,,4,
1-bromopropane,C3H7Br1,000106-94-5,CCCBr,"hansch,c et al. (1995) ",2.1,3,7,0,0,0,0,0,0,1,0,,4,
3-bromoprop-1-ene,C3H5Br1,000106-95-6,BrCC=C,"hansch,c et al. (1995) ",1.79,3,5,0,0,0,0,0,0,1,0,,4,
butane,C4H10,000106-97-8,CCCC,"hansch,c et al. (1995) ",2.89,4,10,0,0,0,0,0,0,0,0,,4,
but-1-ene,C4H8,025167-67-3,CCC=C,"hansch,c et al. (1995) ",2.4,4,8,0,0,0,0,0,0,0,0,,4,
"buta-1,3-diene",C4H6,000106-99-0,C=CC=C,"hansch,c et al. (1995) ",1.99,4,6,0,0,0,0,0,0,0,0,,4,
trans-2-butene,C4H8,000624-64-6,C\C=C\C,"hansch,c et al. (1995) ",2.31,4,8,0,0,0,0,0,0,0,0,,4,
prop-2-enal,C3H4O1,000107-02-8,C=CC=O,"hansch,c et al. (1995) ",-0.01,3,4,0,1,0,0,0,0,0,0,,4,
propane-1-thiol,C3H8S1,000107-03-9,CCCS,"hansch,c et al. (1995) ",1.81,3,8,0,0,1,0,0,0,0,0,,4,
"1,2-dichloroethane",C2H4Cl2,000107-06-2,ClCCCl,"hansch,c et al. (1995) ",1.48,2,4,0,0,0,0,0,2,0,0,,4,
2-chloroethanol,C2H5Cl1O1,000107-07-3,OCCCl,"hansch,c et al. (1995) ",0.03,2,5,0,1,0,0,0,1,0,0,,4,
propan-1-amine,C3H9N1,000107-10-8,CCCN,"hansch,c et al. (1995) ",0.48,3,9,1,0,0,0,0,0,0,0,,4,
prop-2-en-1-amine,C3H7N1,000107-11-9,NCC=C,"hansch,c et al. (1995) ",0.03,3,7,1,0,0,0,0,0,0,0,,4,
propanenitrile,C3H5N1,000107-12-0,CCC#N,"hansch,c et al. (1995) ",0.16,3,5,1,0,0,0,0,0,0,0,,4,
acrylonitrile,C3H3N1,000107-13-1,C=CC#N,"hansch,c et al. (1995) ",0.25,3,3,1,0,0,0,0,0,0,0,,4,
chloroacetonitrile,C2H2Cl1N1,000107-14-2,ClCC#N,"hansch,c et al. (1995) ",0.45,2,2,1,0,0,0,0,1,0,0,,4,
"ethane-1,2-diamine",C2H8N2,000107-15-3,NCCN,"hansch,c et al. (1995) ",-2.04,2,8,2,0,0,0,0,0,0,0,,4,
prop-2-en-1-ol,C3H6O1,000107-18-6,OCC=C,"hansch,c et al. (1995) ",0.17,3,6,0,1,0,0,0,0,0,0,,4,
prop-2-yn-1-ol,C3H4O1,000107-19-7,OCC#C,"hansch,c et al. (1995) ",-0.38,3,4,0,1,0,0,0,0,0,0,,4,
"ethane-1,2-diol",C2H6O2,000107-21-1,OCCO,"hansch,c et al. (1995) ",-1.36,2,6,0,2,0,0,0,0,0,0,,4,
acetaldehyde oxime,C2H5N1O1,000107-29-9,CC=NO,"hansch,c et al. (1995) ",-0.13,2,5,1,1,0,0,0,0,0,0,,4,
methyl formate,C2H4O2,000107-31-3,COC=O,"hansch,c et al. (1995) ",0.03,2,4,0,2,0,0,0,0,0,0,,4,
"2,4,4-trimethylpent-1-ene",C8H16,000107-39-1,CC(=C)CC(C)(C)C,chemicals inspection and testing institu (1992) ,4.55,8,16,0,0,0,0,0,0,0,0,,8,
2-(fluoro-methylphosphoryl)oxypropane,C4H10F1O2P1,000107-44-8,CC(C)O[P](C)(F)=O,"munro,nb et al. (1999) ",0.3,4,10,0,2,0,1,1,0,0,0,,8,
pentan-2-one,C5H10O1,000107-87-9,CCCC(C)=O,"hansch,c et al. (1995) ",0.91,5,10,0,1,0,0,0,0,0,0,,6,
butanoic acid,C4H8O2,000107-92-6,CCCC(O)=O,"hansch,c et al. (1995) ",0.79,4,8,0,2,0,0,0,0,0,0,,6,
3-chloropropionic acid,C3H5Cl1O2,000107-94-8,OC(=O)CCCl,"hansch,c et al. (1995) ",0.41,3,5,0,2,0,0,0,1,0,0,,6,
3-aminoprop-2-ynoic acid,C3H7N1O2,000107-95-9,NC#CC(O)=O,"tsai,rs et al. (1991) ",-3.05,3,7,1,2,0,0,0,0,0,0,,6,
3-sulfanylpropanoic acid,C3H6O2S1,000107-96-0,OC(=O)CCS,"hansch,c et al. (1995) ",0.43,3,6,0,2,1,0,0,0,0,0,,6,
2-methylaminoacetic acid,C3H7N1O2,000107-97-1,CNCC(O)=O,"hansch,c et al. (1995) ",-2.78,3,7,1,2,0,0,0,0,0,0,,6,
1-nitropropane,C3H7N1O2,000108-03-2,CCC[N+]([O-])=O,"hansch,c et al. (1995) ",0.87,3,7,1,2,0,0,0,0,0,0,,6,
ethenyl acetate,C4H6O2,000108-05-4,CC(=O)OC=C,"hansch,c et al. (1995) ",0.73,4,6,0,2,0,0,0,0,0,0,,6,
4-methylpentan-2-one,C6H12O1,000108-10-1,CC(C)CC(C)=O,"tanii,h & hashimoto,k (1986) ",1.31,6,12,0,1,0,0,0,0,0,0,,7,
n-propan-2-ylpropan-2-amine,C6H15N1,000108-18-9,CC(C)NC(C)C,"hansch,c et al. (1995) ",1.4,6,15,1,0,0,0,0,0,0,0,,7,
2-propan-2-yloxypropane,C6H14O1,000108-20-3,CC(C)OC(C)C,"funasaki,n et al. (1985) ",1.52,6,14,0,1,0,0,0,0,0,0,,7,
5-methyl-2-pyrrolidinone,C5H9N1O1,000108-27-0,CC1CCC(=O)N1,"kim,ck et al. (1993) ",-0.1,5,9,1,1,0,0,0,0,0,0,,7,
"4-methyl-1,3-dioxolan-2-one",C4H6O3,000108-32-7,CC1COC(=O)O1,"hansch,c et al. (1995) ",-0.41,4,6,0,3,0,0,0,0,0,0,,7,
"1,3-dibromobenzene",C6H4Br2,000108-36-1,Brc1cccc(Br)c1,"hansch,c et al. (1995) ",3.75,6,4,0,0,0,0,0,0,2,0,,8,
m-bromochlorobenzene,C6H4Br1Cl1,000108-37-2,Clc1cccc(Br)c1,"dunn,wj et al. (1983) ",3.7,6,4,0,0,0,0,0,1,1,0,,8,
"1,3-dimethylbenzene",C8H10,000108-38-3,Cc1cccc(C)c1,"hansch,c et al. (1995) ",3.2,8,10,0,0,0,0,0,0,0,0,,8,
3-methylphenol,C7H8O1,000108-39-4,Cc1cccc(O)c1,"hansch,c et al. (1995) ",1.96,7,8,0,1,0,0,0,0,0,0,,8,
m-chlorotoluene,C7H7Cl1,000108-41-8,Cc1cccc(Cl)c1,"hansch,c et al. (1995) ",3.28,7,7,0,0,0,0,0,1,0,0,,8,
3-chloroaniline,C6H6Cl1N1,000108-42-9,Nc1cccc(Cl)c1,"hansch,c et al. (1995) ",1.88,6,6,1,0,0,0,0,1,0,0,,8,
3-chlorophenol,C6H5Cl1O1,000108-43-0,Oc1cccc(Cl)c1,"hansch,c et al. (1995) ",2.5,6,5,0,1,0,0,0,1,0,0,,8,
3-methylaniline,C7H9N1,000108-44-1,Cc1cccc(N)c1,"hansch,c et al. (1995) ",1.4,7,9,1,0,0,0,0,0,0,0,,8,
"benzene-1,3-diamine",C6H8N2,000108-45-2,Nc1cccc(N)c1,"hansch,c et al. (1995) ",-0.33,6,8,2,0,0,0,0,0,0,0,,8,
"benzene-1,3-diol",C6H6O2,000108-46-3,Oc1cccc(O)c1,"hansch,c et al. (1995) ",0.8,6,6,0,2,0,0,0,0,0,0,,8,
"2,6-dimethylpyridine",C7H9N1,000108-48-5,Cc1cccc(C)n1,"hansch,c et al. (1995) ",1.68,7,9,1,0,0,0,0,0,0,0,,8,
"2,6-dimethylpyrazine",C6H8N2,000108-50-9,Cc1cncc(C)n1,"yamagami,c et al. (1991) ",0.54,6,8,2,0,0,0,0,0,0,0,,8,
2-amino-3h-pyrimidin-4-one,C4H5N3O1,000108-53-2,NC1=NC=CC(=O)N1,"hansch,c et al. (1995) ",-0.99,4,5,3,1,0,0,0,0,0,0,,8,
dimethyl propanedioate,C5H8O4,000108-59-8,COC(=O)CC(=O)OC,"hansch,c et al. (1995) ",-0.05,5,8,0,4,0,0,0,0,0,0,,9,
"dcip  (2,2'-oxybis-1-chloropropane)",C6H12Cl2O1,000108-60-1,C(Cl)C(C)OC(C)CCl,"kawamoto,k & urano,k (1989) ",2.48,6,12,0,1,0,0,0,2,0,0,,9,
"2,4,6,8-tetramethyl-1,3,5,7-tetraoxocane",C8H16O4,000108-62-3,CC1OC(C)OC(C)OC(C)O1,"tomlin,c (2003) ",0.12,8,16,0,4,0,0,0,0,0,0,,12,
1-methoxypropan-2-yl acetate,C6H12O3,000108-65-6,COCC(C)OC(C)=O,"daniels,sl et al (1985) ",0.56,6,12,0,3,0,0,0,0,0,0,,9,
"1,3,5-trimethylbenzene",C9H12,000108-67-8,Cc1cc(C)cc(C)c1,"hansch,c et al. (1995) ",3.42,9,12,0,0,0,0,0,0,0,0,,9,
"3,5-dimethylphenol",C8H10O1,000108-68-9,Cc1cc(C)cc(O)c1,"hansch,c et al. (1995) ",2.35,8,10,0,1,0,0,0,0,0,0,,9,
"1,3,5-trichlorobenzene",C6H3Cl3,000108-70-3,Clc1cc(Cl)cc(Cl)c1,"hansch,c et al. (1995) ",4.19,6,3,0,0,0,0,0,3,0,0,,9,
"benzene-1,3,5-triol",C6H6O3,000108-73-6,Oc1cc(O)cc(O)c1,"hansch,c et al. (1995) ",0.16,6,6,0,3,0,0,0,0,0,0,,9,
"2,4,6-trimethylpyridine",C8H11N1,000108-75-8,Cc1cc(C)nc(C)c1,"hansch,c et al. (1995) ",1.88,8,11,1,0,0,0,0,0,0,0,,9,
"1,3,5-triazine-2,4,6-triamine",C3H6N6,000108-78-1,Nc1nc(N)nc(N)n1,"hansch,c et al. (1995) ",-1.37,3,6,6,0,0,0,0,0,0,0,,9,
bromocyclohexane,C6H11Br1,000108-85-0,BrC1CCCCC1,"hansch,c et al. (1995) ",3.2,6,11,0,0,0,0,0,0,1,0,,7,
bromobenzene,C6H5Br1,000108-86-1,Brc1ccccc1,"hansch,c et al. (1995) ",2.99,6,5,0,0,0,0,0,0,1,0,,7,
methylcyclohexane,C7H14,000108-87-2,CC1CCCCC1,"hansch,c et al. (1995) ",3.61,7,14,0,0,0,0,0,0,0,0,,7,
methylbenzene,C7H8,000108-88-3,Cc1ccccc1,"hansch,c et al. (1995) ",2.73,7,8,0,0,0,0,0,0,0,0,,7,
4-methylpyridine,C6H7N1,000108-89-4,Cc1ccncc1,"hansch,c et al. (1995) ",1.22,6,7,1,0,0,0,0,0,0,0,,7,
chlorobenzene,C6H5Cl1,000108-90-7,Clc1ccccc1,sangster (1994) ,2.84,6,5,0,0,0,0,0,1,0,0,,7,
cyclohexanamine,C6H13N1,000108-91-8,NC1CCCCC1,"hansch,c et al. (1995) ",1.49,6,13,1,0,0,0,0,0,0,0,,7,
cyclohexanol,C6H12O1,000108-93-0,OC1CCCCC1,"hansch,c et al. (1995) ",1.23,6,12,0,1,0,0,0,0,0,0,,7,
cyclohexanone,C6H10O1,000108-94-1,O=C1CCCCC1,"hansch,c et al. (1995) ",0.81,6,10,0,1,0,0,0,0,0,0,,7,
phenol,C6H6O1,000108-95-2,Oc1ccccc1,"hansch,c et al. (1995) ",1.46,6,6,0,1,0,0,0,0,0,0,,7,
benzenethiol,C6H6S1,000108-98-5,Sc1ccccc1,"hansch,c et al. (1995) ",2.52,6,6,0,0,1,0,0,0,0,0,,7,
3-methylpyridine,C6H7N1,000108-99-6,Cc1cccnc1,"hansch,c et al. (1995) ",1.2,6,7,1,0,0,0,0,0,0,0,,7,
pyridin-3-ol,C5H5N1O1,000109-00-2,Oc1cccnc1,"hansch,c et al. (1995) ",0.48,5,5,1,1,0,0,0,0,0,0,,7,
4-methylmorpholine,C5H11N1O1,000109-02-4,CN1CCOCC1,"hansch,c et al. (1995) ",-0.33,5,11,1,1,0,0,0,0,0,0,,7,
2-bromopyridine,C5H4Br1N1,000109-04-6,Brc1ccccn1,"hansch,c et al. (1995) ",1.42,5,4,1,0,0,0,0,0,1,0,,7,
2-methylpyridine,C6H7N1,000109-06-8,Cc1ccccn1,"hansch,c et al. (1995) ",1.11,6,7,1,0,0,0,0,0,0,0,,7,
2-methylpyrazine,C5H6N2,000109-08-0,Cc1cnccn1,"hansch,c et al. (1995) ",0.21,5,6,2,0,0,0,0,0,0,0,,7,
2-chloropyridine,C5H4Cl1N1,000109-09-1,Clc1ccccn1,"hansch,c et al. (1995) ",1.22,5,4,1,0,0,0,0,1,0,0,,7,
2-[2-[2-(2-methylprop-2-enoyloxy)ethoxy]ethoxy]ethyl 2-methylprop-2-enoate,C14H22O6,000109-16-0,CC(=C)C(=O)OCCOCCOCCOC(=O)C(C)=C,sangster (1993) ,1.88,14,22,0,6,0,0,0,0,0,0,,20,
"1,3-dibutylthiourea",C9H20N2S1,000109-46-6,CCCCNC(=S)NCCCC,"govers,h et al. (1986) ",2.75,9,20,2,0,1,0,0,0,0,0,,12,
hex-5-en-2-one,C6H10O1,000109-49-9,CC(=O)CCC=C,"hansch,c et al. (1995) ",1.02,6,10,0,1,0,0,0,0,0,0,,7,
pentanoic acid,C5H10O2,000109-52-4,CCCCC(O)=O,"hansch,c et al. (1995) ",1.39,5,10,0,2,0,0,0,0,0,0,,7,
2-propan-2-yloxyethanol,C5H12O2,000109-59-1,CC(C)OCCO,"hansch,c et al. (1995) ",0.05,5,12,0,2,0,0,0,0,0,0,,7,
propyl acetate,C5H10O2,000109-60-4,CCCOC(C)=O,"hansch,c et al. (1995) ",1.24,5,10,0,2,0,0,0,0,0,0,,7,
"1,3-dibromopropane",C3H6Br2,000109-64-8,BrCCCBr,"hansch,c et al. (1995) ",2.37,3,6,0,0,0,0,0,0,2,0,,5,
1-bromobutane,C4H9Br1,000109-65-9,CCCCBr,"hansch,c et al. (1995) ",2.75,4,9,0,0,0,0,0,0,1,0,,5,
pentane,C5H12,000109-66-0,CCCCC,"hansch,c et al. (1995) ",3.39,5,12,0,0,0,0,0,0,0,0,,5,
1-chlorobutane,C4H9Cl1,000109-69-3,CCCCCl,"hansch,c et al. (1995) ",2.64,4,9,0,0,0,0,0,1,0,0,,5,
1-chloro-3-bromopropane,C3H6Br1Cl1,000109-70-6,ClCCCBr,"tewari,yb et al. (1982) ",2.18,3,6,0,0,0,0,0,1,1,0,,5,
butan-1-amine,C4H11N1,000109-73-9,CCCCN,"hansch,c et al. (1995) ",0.97,4,11,1,0,0,0,0,0,0,0,,5,
butanenitrile,C4H7N1,000109-74-0,CCCC#N,"tanii,h & hashimoto,k (1984) ",0.53,4,7,1,0,0,0,0,0,0,0,,5,
but-3-enenitrile,C4H5N1,000109-75-1,C=CCC#N,"tanii,h & hashimoto,k (1984) ",0.4,4,5,1,0,0,0,0,0,0,0,,5,
"propane-1,3-diamine",C3H10N2,000109-76-2,NCCCN,"hansch,c et al. (1995) ",-1.43,3,10,2,0,0,0,0,0,0,0,,5,
propanedinitrile,C3H2N2,000109-77-3,N#CCC#N,"tanii,h & hashimoto,k (1985) ",-0.6,3,2,2,0,0,0,0,0,0,0,,5,
3-hydroxypropanenitrile,C3H5N1O1,000109-78-4,OCCC#N,sangster (1994) ,-0.94,3,5,1,1,0,0,0,0,0,0,,5,
butane-1-thiol,C4H10S1,000109-79-5,CCCCS,"hansch,c et al. (1995) ",2.28,4,10,0,0,1,0,0,0,0,0,,5,
2-methylaminoethanol,C3H9N1O1,000109-83-1,CNCCO,"hansch,c et al. (1995) ",-0.94,3,9,1,1,0,0,0,0,0,0,,5,
2-methoxyethanol,C3H8O2,000109-86-4,COCCO,"hansch,c et al. (1995) ",-0.77,3,8,0,2,0,0,0,0,0,0,,5,
n-ethylethanamine,C4H11N1,000109-89-7,CCNCC,"hansch,c et al. (1995) ",0.58,4,11,1,0,0,0,0,0,0,0,,5,
ethoxyethene,C4H8O1,000109-92-2,CCOC=C,"hansch,c et al. (1995) ",1.04,4,8,0,1,0,0,0,0,0,0,,5,
ethyl formate,C3H6O2,000109-94-4,CCOC=O,"hansch,c et al. (1995) ",0.23,3,6,0,2,0,0,0,0,0,0,,5,
1h-pyrrole,C4H5N1,000109-97-7,[nH]1cccc1,"hansch,c et al. (1995) ",0.75,4,5,1,0,0,0,0,0,0,0,,5,
oxolane,C4H8O1,000109-99-9,C1CCOC1,"hansch,c et al. (1995) ",0.46,4,8,0,1,0,0,0,0,0,0,,5,
furan,C4H4O1,000110-00-9,o1cccc1,"hansch,c et al. (1995) ",1.34,4,4,0,1,0,0,0,0,0,0,,5,
thiophene,C4H4S1,000110-02-1,s1cccc1,"hansch,c et al. (1995) ",1.81,4,4,0,0,1,0,0,0,0,0,,5,
5-methylhexan-2-one,C7H14O1,000110-12-3,CC(C)CCC(C)=O,"tanii,h & hashimoto,k (1986) ",1.88,7,14,0,1,0,0,0,0,0,0,,8,
"hexane-2,5-dione",C6H10O2,000110-13-4,CC(=O)CCC(C)=O,"hansch,c et al. (1995) ",-0.27,6,10,0,2,0,0,0,0,0,0,,8,
butanedioic acid,C4H6O4,000110-15-6,OC(=O)CCC(O)=O,"hansch,c et al. (1995) ",-0.59,4,6,0,4,0,0,0,0,0,0,,8,
fumaric acid,C4H4O4,000110-17-8,OC(=O)/C=C/C(O)=O,"hansch,c et al. (1995) ",0.46,4,4,0,4,0,0,0,0,0,0,,8,
"n,n,n',n'-tetramethylethane-1,2-diamine",C6H16N2,000110-18-9,CN(C)CCN(C)C,"hansch,c et al. (1995) ",0.3,6,16,2,0,0,0,0,0,0,0,,8,
2-methylpropyl acetate,C6H12O2,000110-19-0,CC(C)COC(C)=O,"hansch,c et al. (1995) ",1.78,6,12,0,2,0,0,0,0,0,0,,8,
methyl decanoate,C11H22O2,000110-42-9,CCCCCCCCCC(=O)OC,"hansch,c et al. (1995) ",4.41,11,22,0,2,0,0,0,0,0,0,,13,
heptan-2-one,C7H14O1,000110-43-0,CCCCCC(C)=O,"hansch,c et al. (1995) ",1.98,7,14,0,1,0,0,0,0,0,0,,8,
sorbic acid,C6H8O2,000110-44-1,C/C=C/C=C/C(O)=O,"hansch,c et al. (1995) ",1.33,6,8,0,2,0,0,0,0,0,0,,8,
1-bromopentane,C5H11Br1,000110-53-2,CCCCCBr,"hansch,c et al. (1995) ",3.37,5,11,0,0,0,0,0,0,1,0,,6,
hexane,C6H14,000110-54-3,CCCCCC,"hansch,c et al. (1995) ",3.9,6,14,0,0,0,0,0,0,0,0,,6,
pentan-1-amine,C5H13N1,000110-58-7,CCCCCN,"hansch,c et al. (1995) ",1.49,5,13,1,0,0,0,0,0,0,0,,6,