Names,Formula,CAS No,SMILES,Reference,Exp logp,C,H,N,O,S,P,F,Cl,Br,I,,,
"benzamide, 5-chloro-n-ethyl-2-hydroxy-3-methyl-",C10H12Cl1N1O2,058708-52-4,CCNC(=O)c1cc(Cl)cc(C)c1O,sangster (1993) ,3.55,10,12,1,2,0,0,0,1,0,0,,14,
"1-(3-bromophenyl)pyrrolidine-2,5-dione",C10H8Br1N1O2,058714-54-8,Brc1cccc(c1)N2C(=O)CCC2=O,"hansch,c & leo,aj (1985) ",1.09,10,8,1,2,0,0,0,0,1,0,,14,
"benzenesulfonamide, 3-methoxy-",C7H9N1O3S1,058734-57-9,COc1cccc(c1)[S](N)(=O)=O,"carotti,a et al. (1989) ",0.53,7,9,1,3,1,0,0,0,0,0,,12,
58742-04-4,C11H13N1,062624-26-4,NC1CC2CC1c3ccccc23,"hansch,c et al. (1995) ",2.09,11,13,1,0,0,0,0,0,0,0,,12,
"benzobicyclo(221)heptene,2ex-meamino",C12H15N1,086943-79-5,CNC1C2c3c(C(C2)C1)cccc3,"hansch,c & leo,aj (1985) ",2.47,12,15,1,0,0,0,0,0,0,0,,13,
ofurace,C14H16Cl1N1O3,058810-48-3,Cc1cccc(C)c1N(C2CCOC2=O)C(=O)CCl,"tomlin,c (1997) ",1.39,14,16,1,3,0,0,0,1,0,0,,19,
"isoquinoline, 3-(2-pyridinyl)-",C14H10N2,058814-67-8,c1ccc(nc1)c2cc3ccccc3cn2,sangster (1993) ,3.05,14,10,2,0,0,0,0,0,0,0,,16,
"1,2,3,4,5,6,7-heptachloronaphthalene",C10H1Cl7,058863-14-2,Clc1cc2c(Cl)c(Cl)c(Cl)c(Cl)c2c(Cl)c1Cl,"lei,yd et al. (2000) ",8.2,10,1,0,0,0,0,0,7,0,0,,17,
3-naphthalen-1-yloxypropanenitrile,C13H11N1O1,058889-08-0,N#CCCOc1cccc2ccccc12,"chamberlain,k et al. (1986) ",2.8,13,11,1,1,0,0,0,0,0,0,,15,
"9h-carbazole, 1,3,6,8-tetrachloro-",C12H5Cl4N1,058910-96-6,Clc1cc(Cl)c2[nH]c3c(Cl)cc(Cl)cc3c2c1,"burkhard,lp & kuehl,dw (1986) ",5.75,12,5,1,0,0,0,0,4,0,0,,17,
"2,4,4'-trichlorodiphenyl ether",C12H7Cl3O1,059039-21-3,Clc1c(Oc2ccc(Cl)cc2)ccc(Cl)c1,"kurz,j & ballschmiter,k (1999) ",5.53,12,7,0,1,0,0,0,3,0,0,,16,
5-methyl-2-(2-naphthalen-2-yloxyethyl)-4h-pyrazol-3-one,C16H16N2O2,059040-30-1,CC1=NN(CCOc2ccc3ccccc3c2)C(=O)C1,"hansch,c et al. (1995) ",2.74,16,16,2,2,0,0,0,0,0,0,,20,
5-pyridin-4-ylpentan-1-amine,C10H16N2,059082-52-9,NCCCCCc1ccncc1,"hansch,c et al. (1995) ",1.4,10,16,2,0,0,0,0,0,0,0,,12,
5-pyridin-2-ylpentan-1-amine,C10H16N2,059082-57-4,NCCCCCc1ccccn1,"hansch,c et al. (1995) ",1.32,10,16,2,0,0,0,0,0,0,0,,12,
"2-butylsulfanylnaphthalene-1,4-dione",C14H14O2S1,059094-49-4,CCCCSC1=CC(=O)c2ccccc2C1=O,"hansch,c et al. (1995) ",3.29,14,14,0,2,1,0,0,0,0,0,,17,
"1-[2-(3,4-dimethoxyphenyl)ethylamino]-3-(3-methylphenoxy)propan-2-ol",C20H27N1O4,059170-23-9,COc1ccc(CCNCC(O)COc2cccc(C)c2)cc1OC,"hansch,c et al. (1995) ",3,20,27,1,4,0,0,0,0,0,0,,25,
4-bromo-1-methyl-5-nitroimidazole,C4H4Br1N3O2,059177-47-8,Cn1cnc(Br)c1[N+]([O-])=O,"suwinski,j et al. (1985) ",0.77,4,4,3,2,0,0,0,0,1,0,,10,
1-(2-amino-4-methylsulfanylbutanoyl)pyrrolidine-2-carboxylic acid,C10H18N2O3S1,059227-86-0,CSCCC(N)C(=O)N1CCCC1C(O)=O,biobyte starlist (2009) ,-2.52,10,18,2,3,1,0,0,0,0,0,,16,
"2-[(2,6-diaminopurin-9-yl)methoxy]ethanol",C8H12N6O2,059277-86-0,Nc1nc(N)c2ncn(COCCO)c2n1,pomona (1987) ,-1.06,8,12,6,2,0,0,0,0,0,0,,16,
acyclovir,C8H11N5O3,059277-89-3,NC1=NC(=O)c2ncn(COCCO)c2N1,"kristl,a et al. (1993) ",-1.56,8,11,5,3,0,0,0,0,0,0,,16,
2-fluoro-4-chloroacetanilide,C8H7Cl1F1N1O1,059280-70-5,Clc1ccc(NC(=O)(C))c(F)c1,"nakagawa,y et al. (1992) ",1.91,8,7,1,1,0,0,1,1,0,0,,12,
"biphenyl, 2,2',3,4,4',6'-hexachloro-",C12H4Cl6,059291-64-4,Clc1cc(Cl)c(c(Cl)c1)c2ccc(Cl)c(Cl)c2Cl,biobyte (1995) ,7.25,12,4,0,0,0,0,0,6,0,0,,18,
"2,3',4,4',5',6-hexachlorobiphenyl",C12H4Cl6,059291-65-5,Clc1cc(Cl)c(c(Cl)c1)c2cc(Cl)c(Cl)c(Cl)c2,biobyte (1995) ,7.25,12,4,0,0,0,0,0,6,0,0,,18,
"pyrazine, 2-chloro-5-methyl-",C5H5Cl1N2,059303-10-5,Cc1cnc(Cl)cn1,"yamagami,c et al. (1991) ",1.08,5,5,2,0,0,0,0,1,0,0,,8,
propyl thiophene-2-carboxylate,C8H10O2S1,059303-19-4,CCCOC(=O)c1sccc1,"yamagami,c & masaki,y (1995) ",3.01,8,10,0,2,1,0,0,0,0,0,,11,
6-methoxy-n-[(1-prop-2-enylpyrrolidin-2-yl)methyl]-2h-benzotriazole-5-carboxamide,C16H21N5O2,059338-93-1,COc1cc2n[nH]nc2cc1C(=O)NCC3CCCN3CC=C,"mannhold,r et al. (1990) ",1.79,16,21,5,2,0,0,0,0,0,0,,23,
"1-chloro-2-(1,2-ethanediol)benzene",C8H9Cl1O2,059365-60-5,Clc1ccccc1C(O)CO,chemicals inspection and testing institu (1992) ,1.17,8,9,0,2,0,0,0,1,0,0,,11,
(dimethylhydrazinylidene)-oxido-phenylazanium,C8H11N3O1,059477-92-8,CN(C)N=[N+]([O-])c1ccccc1,"hansch,c & leo,aj (1985) ",1.8,8,11,3,1,0,0,0,0,0,0,,12,
"5-[(3-methoxyphenyl)methyl]pyrimidine-2,4-diamine",C12H14N4O1,059481-28-6,COc1cccc(Cc2cnc(N)nc2N)c1,"hansch,c & leo,aj (1985) ",1.54,12,14,4,1,0,0,0,0,0,0,,17,
thiodicarb,C10H18N4O4S3,059669-26-0,CSC(\C)=N/OC(=O)N(C)SN(C)C(=O)O\N=C(\C)SC,"hansch,c et al. (1995) ",1.7,10,18,4,4,3,0,0,0,0,0,,21,
4-(ethyl-methylamino)diazenylbenzamide,C10H14N4O1,059708-19-9,CCN(C)N=Nc1ccc(cc1)C(N)=O,"hansch,c et al. (1995) ",1.69,10,14,4,1,0,0,0,0,0,0,,15,
4-(2-hydroxyethyl-methylamino)diazenylbenzamide,C10H14N4O2,059708-20-2,CN(CCO)N=Nc1ccc(cc1)C(N)=O,"hansch,c et al. (1995) ",0.26,10,14,4,2,0,0,0,0,0,0,,16,
4-(butyl-methylamino)diazenylbenzamide,C12H18N4O1,059708-21-3,CCCCN(C)N=Nc1ccc(cc1)C(N)=O,sangster (1994) ,2.46,12,18,4,1,0,0,0,0,0,0,,17,
4-(methyl-pentylamino)diazenylbenzamide,C13H20N4O1,059708-22-4,CCCCCN(C)N=Nc1ccc(cc1)C(N)=O,"hansch,c et al. (1995) ",3.18,13,20,4,1,0,0,0,0,0,0,,18,
4-(methyl-propan-2-ylamino)diazenylbenzamide,C11H16N4O1,059708-23-5,CC(C)N(C)N=Nc1ccc(cc1)C(N)=O,"hansch,c et al. (1995) ",2.02,11,16,4,1,0,0,0,0,0,0,,16,
4-(methyl-(phenylmethyl)amino)diazenylbenzamide,C15H16N4O1,059708-24-6,CN(Cc1ccccc1)N=Nc2ccc(cc2)C(N)=O,"hansch,c & leo,aj (1985) ",2.76,15,16,4,1,0,0,0,0,0,0,,20,
4-(tert-butyl-methylamino)diazenylbenzamide,C12H18N4O1,059708-25-7,CN(N=Nc1ccc(cc1)C(N)=O)C(C)(C)C,"hansch,c & leo,aj (1985) ",2.61,12,18,4,1,0,0,0,0,0,0,,17,
lorcainide,C22H27Cl1N2O1,059729-31-6,CC(C)N1CCC(CC1)N(C(=O)Cc2ccccc2)c3ccc(Cl)cc3,"mannhold,r et al. (1990) ",4.85,22,27,2,1,0,0,0,1,0,0,,26,
1-methyl-2-[(4-methylsulfanylphenoxy)methyl]-5-nitroimidazole,C12H13N3O3S1,059729-37-2,CSc1ccc(OCc2ncc(n2C)[N+]([O-])=O)cc1,sangster (1994) ,2.5,12,13,3,3,1,0,0,0,0,0,,19,
1-methyl-3-phenyl-5-[3-(trifluoromethyl)phenyl]pyridin-4-one,C19H14F3N1O1,059756-60-4,CN1C=C(c2ccccc2)C(=O)C(=C1)c3cccc(c3)C(F)(F)F,biobyte (1995) ,3.16,19,14,1,1,0,0,3,0,0,0,,24,
propyl 4-sulfamoylbenzoate,C10H13N1O4S1,059777-58-1,CCCOC(=O)c1ccc(cc1)[S](N)(=O)=O,"hansch,c et al. (1995) ",1.75,10,13,1,4,1,0,0,0,0,0,,16,
butyl 4-sulfamoylbenzoate,C11H15N1O4S1,059777-59-2,CCCCOC(=O)c1ccc(cc1)[S](N)(=O)=O,"hansch,c et al. (1995) ",2.34,11,15,1,4,1,0,0,0,0,0,,17,
pentyl 4-sulfamoylbenzoate,C12H17N1O4S1,059777-60-5,CCCCCOC(=O)c1ccc(cc1)[S](N)(=O)=O,"hansch,c et al. (1995) ",2.71,12,17,1,4,1,0,0,0,0,0,,18,
n-ethyl-4-sulfamoylbenzamide,C9H12N2O3S1,059777-62-7,CCNC(=O)c1ccc(cc1)[S](N)(=O)=O,"hansch,c et al. (1995) ",0.03,9,12,2,3,1,0,0,0,0,0,,15,
n-butyl-4-sulfamoylbenzamide,C11H16N2O3S1,059777-63-8,CCCCNC(=O)c1ccc(cc1)[S](N)(=O)=O,"hansch,c et al. (1995) ",1.05,11,16,2,3,1,0,0,0,0,0,,17,
n-pentyl-4-sulfamoylbenzamide,C12H18N2O3S1,059777-64-9,CCCCCNC(=O)c1ccc(cc1)[S](N)(=O)=O,"hansch,c et al. (1995) ",1.51,12,18,2,3,1,0,0,0,0,0,,18,
n-hexyl-4-sulfamoylbenzamide,C13H20N2O3S1,059777-65-0,CCCCCCNC(=O)c1ccc(cc1)[S](N)(=O)=O,"hansch,c et al. (1995) ",2.05,13,20,2,3,1,0,0,0,0,0,,19,
halopemide,C21H22Cl1F1N4O2,059831-65-1,Fc1ccc(cc1)C(=O)NCCN2CCC(CC2)N3C(=O)Nc4cc(Cl)ccc34,"el tayar,n et al. (1985) ",4.63,21,22,4,2,0,0,1,1,0,0,,29,
methyl 1-methyl-5-oxopyrrolidine-3-carboxylate,C7H11N1O3,059857-86-2,COC(=O)C1CN(C)C(=O)C1,"sasaki,h et al. (1988) ",-0.74,7,11,1,3,0,0,0,0,0,0,,11,
"3,4-dichloro-n-nitrosopyrrolidine",C4H6Cl2N2O1,059863-59-1,ClC1CN(CC1Cl)N=O,"hansch,c et al. (1995) ",0.83,4,6,2,1,0,0,0,2,0,0,,9,
"2,5-bis(aziridin-1-yl)-3,6-bis[4-(2-hydroxyethyl)piperazin-1-yl]cyclohexa-2,5-diene-1,4-dione",C22H34N6O4,059886-40-7,OCCN1CCN(CC1)C2=C(N3CC3)C(=O)C(=C(N4CC4)C2=O)N5CCN(CCO)CC5,sangster (1993) ,-0.77,22,34,6,4,0,0,0,0,0,0,,32,
"2,5-bis(aziridin-1-yl)-3,6-bis(2-hydroxyethyl-methylamino)cyclohexa-2,5-diene-1,4-dione",C16H24N4O4,059886-46-3,CN(CCO)C1=C(N2CC2)C(=O)C(=C(N3CC3)C1=O)N(C)CCO,pomona (1987) ,-0.37,16,24,4,4,0,0,0,0,0,0,,24,
"2,5-bis(aziridin-1-yl)-3,6-bis(2-hydroxyethylamino)cyclohexa-2,5-diene-1,4-dione",C14H20N4O4,not,OCCNC1=C(N2CC2)C(=O)C(=C(N3CC3)C1=O)NCCO,"hansch,c et al. (1995) ",-1.48,14,20,4,4,0,0,0,0,0,0,,22,
"2,5-bis(aziridin-1-yl)-3,6-bis(2,3-dihydroxypropylamino)cyclohexa-2,5-diene-1,4-dione",C16H24N4O6,059886-55-4,OCC(O)CNC1=C(N2CC2)C(=O)C(=C(N3CC3)C1=O)NCC(O)CO,pomona (1987) ,-1.97,16,24,4,6,0,0,0,0,0,0,,26,
7-hydroxychromen-4-one,C9H6O3,059887-89-7,Oc1ccc2C(=O)C=COc2c1,"hansch,c et al. (1995) ",1.44,9,6,0,3,0,0,0,0,0,0,,12,
tr-cypr-co2me-22-dime-3(2diclethenyl),C9H12Cl2O2,059897-94-8,C1(C(=O)OC)C(C=C(Cl)Cl)C1(C)C,"hansch,c et al. (1995) ",3.63,9,12,0,2,0,0,0,2,0,0,,13,
"n,n-dimethylthiophene-3-carboxamide",C7H9N1O1S1,059906-37-5,CN(C)C(=O)c1cscc1,"hansch,c & leo,aj (1985) ",0.55,7,9,1,1,1,0,0,0,0,0,,10,
n-(2-methyl-6-nitrophenyl)acetamide,C9H10N2O3,059907-22-1,CC(=O)Nc1c(C)cccc1[N+]([O-])=O,"nakagawa,y et al. (1992) ",0.61,9,10,2,3,0,0,0,0,0,0,,14,
n-(dimethylaminomethyl)benzamide,C10H14N2O1,059917-58-7,CN(C)CNC(=O)c1ccccc1,"hansch,c & leo,aj (1985) ",0.63,10,14,2,1,0,0,0,0,0,0,,13,
"dipropan-2-yl 2-(1,3-dithiol-2-ylidene)propanedioate",C12H16O4S2,059937-28-9,CC(C)OC(=O)C(C(=O)OC(C)C)=C1SC=CS1,sangster (1994) ,3.75,12,16,0,4,2,0,0,0,0,0,,18,
2-(4-hexoxyphenyl)acetic acid,C14H20O3,060003-46-5,CCCCCCOc1ccc(CC(O)=O)cc1,sangster (1994) ,3.96,14,20,0,3,0,0,0,0,0,0,,17,
"1-[1,3-dihydroxy-2-(hydroxymethyl)propan-2-yl]-3-phenylurea",C11H16N2O4,060035-83-8,OCC(CO)(CO)NC(=O)Nc1ccccc1,"hansch,c & leo,aj (1985) ",0.43,11,16,2,4,0,0,0,0,0,0,,17,
2-(5-ethenyl-5-methyloxolan-2-yl)propan-2-ol,C10H18O2,060047-17-8,CC(C)(O)C1CCC(C)(O1)C=C,"griffin,s et al. (1999) ",2.43,10,18,0,2,0,0,0,0,0,0,,12,
"1-[3-(trifluoromethyl)phenyl]pyrrolidine-2,5-dione",C11H8F3N1O2,060050-38-6,FC(F)(F)c1cccc(c1)N2C(=O)CCC2=O,"hansch,c & leo,aj (1985) ",1.26,11,8,1,2,0,0,3,0,0,0,,17,
"1,2,3-trimeo trichlorocyclohexane",C9H15Cl3O3,060067-82-5,COC1C(OC)C(OC)C(Cl)C(Cl)C1Cl,"hansch,c & leo,aj (1985) ",1.87,9,15,0,3,0,0,0,3,0,0,,15,
2-meo 3-mes tetrachlorocyclohexane,C8H12Cl4O1S1,060067-85-8,COC1C(SC)C(Cl)C(Cl)C(Cl)C1Cl,"hansch,c & leo,aj (1985) ",3.3,8,12,0,1,1,0,0,4,0,0,,14,
"cyclohexane, 1,2,4,5-tetrachloro-",C6H8Cl4,060067-92-7,ClC1CC(Cl)C(Cl)CC1Cl,biobyte (1995) ,2.82,6,8,0,0,0,0,0,4,0,0,,10,
"2-[3,4-dihydroxy-5-(hydroxymethyl)oxolan-2-yl]-1,3-thiazole-4-carboxamide",C9H12N2O5S1,060084-10-8,NC(=O)c1csc(n1)C2OC(CO)C(O)C2O,sangster (1994) ,-1.73,9,12,2,5,1,0,0,0,0,0,,17,
"2,2',4,4',5-pentachlor-diphenylether",C12H5Cl5O1,060123-64-0,c1(Oc2c(Cl)cc(Cl)cc2)c(Cl)cc(Cl)c(Cl)c1,"kurz,j & ballschmiter,k (1999) ",6.38,12,5,0,1,0,0,0,5,0,0,,18,
"2,3',4,4',5-pentachlorodiphenyl ether",C12H5Cl5O1,060123-65-1,Clc1ccc(Oc2cc(Cl)c(Cl)cc2Cl)cc1Cl,"kurz,j & ballschmiter,k (1999) ",6.6,12,5,0,1,0,0,0,5,0,0,,18,
2-[1-(aminomethyl)cyclohexyl]acetic acid,C9H17N1O2,060142-96-3,NCC1(CCCCC1)CC(O)=O,sangster (1994) ,-1.1,9,17,1,2,0,0,0,0,0,0,,12,
et-n-cl-acetyl-n-(2etph)glycinate,C14H18Cl1N1O3,060145-76-8,CCc1c(N(C(=O)CCl)CC(=O)OCC)cccc1,"hansch,c & leo,aj (1985) ",2.57,14,18,1,3,0,0,0,1,0,0,,19,
et-n-chloroacetyl-n-(2meoph)glycinate,C13H16Cl1N1O4,060145-78-0,CCOC(=O)CN(C(=O)CCl)c1c(OC)cccc1,"hansch,c & leo,aj (1985) ",1.78,13,16,1,4,0,0,0,1,0,0,,19,
"glycine, n-(chloroacetyl)-n-[2-(1-methylethoxy)p",C15H20Cl1N1O4,060145-79-1,CCOC(=O)CN(C1=CC=CC=C1OC(C)C)C(=O)CCl,sangster (1994) ,2.75,15,20,1,4,0,0,0,1,0,0,,21,
3-hydroxy-1-propan-2-ylurea,C4H10N2O2,060165-07-3,CC(C)NC(=O)NO,"hansch,c et al. (1995) ",0.2,4,10,2,2,0,0,0,0,0,0,,8,
"n,n'-bis(1,3-dihydroxypropan-2-yl)-5-(2-hydroxypropanoylamino)-2,4,6-triiodobenzene-1,3-dicarboxamide",C17H22I3N3O8,060166-93-0,CC(O)C(=O)Nc1c(I)c(C(=O)NC(CO)CO)c(I)c(C(=O)NC(CO)CO)c1I,biobyte (1995) ,-2.42,17,22,3,8,0,0,0,0,0,3,,31,
fenarimol,C17H12Cl2N2O1,060168-88-9,OC(c1ccc(Cl)cc1)(c2cncnc2)c3ccccc3Cl,"hansch,c et al. (1995) ",3.6,17,12,2,1,0,0,0,2,0,0,,22,
azaconazol,C12H11Cl2N3O2,060207-31-0,C1(Cn3cncn3)(c2c(Cl)cc(Cl)cc2)OCCO1,"hansch,c et al. (1995) ",2.32,12,11,3,2,0,0,0,2,0,0,,19,
propiconazole,C15H17Cl2N3O2,060207-90-1,CCCC1COC(Cn2cncn2)(O1)c3ccc(Cl)cc3Cl,"tomlin,c (2003) ",3.72,15,17,3,2,0,0,0,2,0,0,,22,
dioxolane224diclph2124triazolylme4et,C14H15Cl2N3O2,not,n1(CC2(c3ccc(Cl)cc3Cl)OC(CC)CO2)cncn1,biobyte (1995) ,3.03,14,15,3,2,0,0,0,2,0,0,,21,
"2-(hydroxymethyl)-5-(6-methylaminopurin-9-yl)oxolane-3,4-diol",C11H15N5O4,060209-41-8,CNc1ncnc2n(cnc12)C3OC(CO)C(O)C3O,biobyte starlist (2009) ,-0.52,11,15,5,4,0,0,0,0,0,0,,20,
"benzenemethanol, 3,5-dichloro-",C7H6Cl2O1,060211-57-6,OCc1cc(Cl)cc(Cl)c1,"miyake,f et al. (1987) ",2.9,7,6,0,1,0,0,0,2,0,0,,10,
"2-[2,4-diiodo-5-[3,4,5-trihydroxy-6-(hydroxymethyl)oxan-2-yl]oxyphenoxy]-6-(hydroxymethyl)oxane-3,4,5-triol",C18H24I2O12,060331-52-4,OCC1OC(Oc2cc(OC3OC(CO)C(O)C(O)C3O)c(I)cc2I)C(O)C(O)C1O,"hansch,c & leo,aj (1985) ",-0.25,18,24,0,12,0,0,0,0,0,2,,32,
"4-oxo-10-propyl-6,7,8,9-tetrahydrobenzo[g]chromene-2-carboxylic acid",C17H18O4,060400-86-4,CCCc1c2CCCCc2cc3C(=O)C=C(Oc13)C(O)=O,biobyte starlist (2009) ,4.2,17,18,0,4,0,0,0,0,0,0,,21,
"5-hydroxy-4-oxo-10-propyl-6,7,8,9-tetrahydrobenzo[g]chromene-2-carboxylic acid",C17H18O5,060400-92-2,CCCc1c2CCCCc2c(O)c3C(=O)C=C(Oc13)C(O)=O,"avdeef,a (1997) ",5,17,18,0,5,0,0,0,0,0,0,,22,
"3-furancarboxylic acid, 4,5-dihydro-5-[(4-methox",C16H16O5,060404-04-8,CC1OC(=Cc2ccc(OC)cc2)C(=O)C=1C(=O)OCC,sangster (1993) ,2.96,16,16,0,5,0,0,0,0,0,0,,21,
"2-[2,6-diiodo-3-[3,4,5-trihydroxy-6-(hydroxymethyl)oxan-2-yl]oxyphenoxy]-6-(hydroxymethyl)oxane-3,4,5-triol",C18H24I2O12,060406-79-3,OCC1OC(Oc2ccc(I)c(OC3OC(CO)C(O)C(O)C3O)c2I)C(O)C(O)C1O,"hansch,c & leo,aj (1985) ",-1.31,18,24,0,12,0,0,0,0,0,2,,32,
2-(3-methyl-2-nitroimidazol-4-yl)propan-2-ol,C7H11N3O3,060628-92-4,Cn1c(ncc1C(C)(C)O)[N+]([O-])=O,"hansch,c & leo,aj (1985) ",0.43,7,11,3,3,0,0,0,0,0,0,,13,
1-[phenyl-(4-phenylphenyl)methyl]imidazole,C22H18N2,060628-96-8,c1ccc(cc1)C(n2ccnc2)c3ccc(cc3)c4ccccc4,biobyte (1995) ,4.77,22,18,2,0,0,0,0,0,0,0,,24,
4-aminohex-5-enoic acid,C6H11N1O2,060643-86-9,NC(CCC(O)=O)C=C,"henczi,m et al. (1995) ",-2.16,6,11,1,2,0,0,0,0,0,0,,9,
"1-(3-fluorophenyl)pyrrolidine-2,5-dione",C10H8F1N1O2,060693-35-8,Fc1cccc(c1)N2C(=O)CCC2=O,"hansch,c & leo,aj (1985) ",0.38,10,8,1,2,0,0,1,0,0,0,,14,
"1-(4-fluorophenyl)pyrrolidine-2,5-dione",C10H8F1N1O2,060693-37-0,Fc1ccc(cc1)N2C(=O)CCC2=O,"hansch,c & leo,aj (1985) ",0.29,10,8,1,2,0,0,1,0,0,0,,14,
n-propylfuran-2-carboxamide,C8H11N1O2,060708-27-2,CCCNC(=O)c1occc1,sangster (1994) ,1.1,8,11,1,2,0,0,0,0,0,0,,11,
"phenylacetic acid,3-cl-4-phmeo",C15H13Cl1O3,060736-83-6,Clc2cc(CC(=O)O)ccc2OCc1ccccc1,"hansch,c & leo,aj (1985) ",3.43,15,13,0,3,0,0,0,1,0,0,,19,
4-pyridin-3-ylbutan-1-ol,C9H13N1O1,060753-14-2,OCCCCc1cccnc1,"hansch,c et al. (1995) ",0.92,9,13,1,1,0,0,0,0,0,0,,11,
"1,1'-tetramethylene-bis-cnu",C10H18Cl2N6O4,060784-43-2,ClCCN(C(=O)NCCCCNC(=O)N(CCCl)N=O)N=O,"hansch,c & leo,aj (1985) ",0.9,10,18,6,4,0,0,0,2,0,0,,22,
hydroxyethyl-clet-no urea,C5H10Cl1N3O3,060784-46-5,ClCCN(C(=O)NCCO)N=O,"hansch,c & leo,aj (1985) ",0.3,5,10,3,3,0,0,0,1,0,0,,12,
"5-ethyl-5-heptyl-1,3-diazinane-2,4,6-trione",C13H22N2O3,060784-70-5,CCCCCCCC1(CC)C(=O)NC(=O)NC1=O,"hansch,c & leo,aj (1985) ",2.91,13,22,2,3,0,0,0,0,0,0,,18,
(4-butylphenyl)methanol,C11H16O1,060834-63-1,CCCCc1ccc(CO)cc1,daylight (1999) ,3,11,16,0,1,0,0,0,0,0,0,,12,
"2,5,8,11,14,17-hexaoxabicyclo[16.4.0]docosa-1(18),19,21-triene-21-carboxylic acid",C17H24O8,060835-75-8,OC(=O)c1ccc2OCCOCCOCCOCCOCCOc2c1,"hansch,c et al. (1995) ",-0.28,17,24,0,8,0,0,0,0,0,0,,25,
"methoxymethyl 6-[4-(4-hydroxyphenyl)-2,2-dimethyl-5-oxoimidazolidin-1-yl]-3,3-dimethyl-7-oxo-4-thia-1-azabicyclo[3.2.0]heptane-2-carboxylate",C21H27N3O6S1,060903-21-1,COCOC(=O)C1N2C(SC1(C)C)C(N3C(=O)C(NC3(C)C)c4ccc(O)cc4)C2=O,sangster (1993) ,0.3,21,27,3,6,1,0,0,0,0,0,,31,
"1(2h)-pyrimidinecarboxamide, 5-fluoro-3,4-dihydr",C7H8F1N3O3,060908-29-4,CN(C)C(=O)N1C(=O)NC(=O)C(F)=C1,sangster (1994) ,-0.37,7,8,3,3,0,0,1,0,0,0,,14,
"thiazolidine, 2-(m-chlorophenyl)",C9H10Cl1N1S1,060980-82-7,c1cc(Cl)cc(C2SCCN2)c1,"hansch,c & leo,aj (1985) ",2.04,9,10,1,0,1,0,0,1,0,0,,12,
2-(imidazol-1-ylmethyl)-2-phenylhexanenitrile,C16H19N3,061019-78-1,CCCCC(Cn1ccnc1)(C#N)c2ccccc2,"hansch,c et al. (1995) ",2.94,16,19,3,0,0,0,0,0,0,0,,19,
2-(m-cl-phenyl)-4-ipr-morpholine,C13H18Cl1N1O1,061151-66-4,CC(C)N1CC(c2cc(Cl)ccc2)OCC1,"hansch,c & leo,aj (1985) ",3.27,13,18,1,1,0,0,0,1,0,0,,16,
5-hydroxy-1-methyl-5-pyridin-3-ylpyrrolidin-2-one,C10H12N2O2,061192-50-5,CN1C(=O)CCC1(O)c2cccnc2,"li,ny & gorrod,jw (1992) ",-0.57,10,12,2,2,0,0,0,0,0,0,,14,
flurochloridone,C12H10Cl2F3N1O1,061213-25-0,FC(F)(F)c1cccc(c1)N2CC(CCl)C(Cl)C2=O,"tomlin,c (1994) ",3.36,12,10,1,1,0,0,3,2,0,0,,19,
(4-aminophenyl)methanol,C7H9N1O1,061224-32-6,Nc1ccc(CO)cc1,"hansch,c et al. (1995) ",-0.22,7,9,1,1,0,0,0,0,0,0,,9,
5-o-mycaminosyltylonide,C31H51N1O10,061257-02-1,CCC1C(C=C(C=CC(=O)C(CC(C(C(C(CC(=O)O1)O)C)OC2C(C(C(C(O2)C)O)N(C)C)O)CC=O)C)C)CO,"mcfarland,jw et al. (1997) ",0.99,31,51,1,10,0,0,0,0,0,0,,42,
"2',3,4-trichlorodiphenyl ether",C12H7Cl3O1,061328-44-7,Clc2ccccc2Oc1ccc(Cl)c(Cl)c1,"kurz,j & ballschmiter,k (1999) ",5.5,12,7,0,1,0,0,0,3,0,0,,16,
"2,4,4',5-tetrachlorodiphenyl ether",C12H6Cl4O1,061328-45-8,Clc1ccc(Oc2cc(Cl)c(Cl)cc2Cl)cc1,"kurz,j & ballschmiter,k (1999) ",5.99,12,6,0,1,0,0,0,4,0,0,,17,
"barbituric acid,1-me-5-allyl-5-et",C10H14N2O3,061346-84-7,O=C1C(CC=C)(CC)C(=O)NC(=O)N1C,"hansch,c et al. (1995) ",1.35,10,14,2,3,0,0,0,0,0,0,,15,
"barbituric acid,1-me-5-et-5(phet)",C15H18N2O3,061346-87-0,O=C1C(CC)(C(C)c2ccccc2)C(=O)NC(=O)N1C,biobyte (1995) ,3.14,15,18,2,3,0,0,0,0,0,0,,20,
"2-(3,5-dimethoxy-4-propan-2-yloxyphenyl)ethanamine",C13H21N1O3,061367-70-2,COc1cc(CCN)cc(OC)c1OC(C)C,"hansch,c et al. (1995) ",1.52,13,21,1,3,0,0,0,0,0,0,,17,
"2-(4-bromo-3,5-dimethoxyphenyl)ethanamine",C10H14Br1N1O2,061367-72-4,COc1cc(CCN)cc(OC)c1Br,"hansch,c et al. (1995) ",2.03,10,14,1,2,0,0,0,0,1,0,,14,
methyl 3-methyl-1-(2-phenylethyl)-4-(phenyl-propanoylamino)piperidine-4-carboxylate,C25H32N2O3,061380-40-3,CCC(=O)N(c1ccccc1)C2(CCN(CCc3ccccc3)CC2C)C(=O)OC,sangster (1993) ,4.22,25,32,2,3,0,0,0,0,0,0,,30,
"5-fluoro-n-hexyl-2,4-dioxopyrimidine-1-carboxamide",C11H16F1N3O3,061422-45-5,CCCCCCNC(=O)N1C=C(F)C(=O)NC1=O,sangster (1994) ,2.63,11,16,3,3,0,0,1,0,0,0,,18,
s-(2-phenylpropan-2-yl) piperidine-1-carbothioate,C15H21N1O1S1,061432-55-1,CC(C)(SC(=O)N1CCCCC1)c2ccccc2,"tomlin,c (1997) ",4.02,15,21,1,1,1,0,0,0,0,0,,18,
2-me-134-thiadiazole-5-carboxaldoxime,C4H5N3O1S1,061444-95-9,Cc1nnc(C=NO)s1,"hansch,c & leo,aj (1985) ",0.78,4,5,3,1,1,0,0,0,0,0,,9,
2-methyl-4-phenylquinazoline,C15H12N2,061453-53-0,Cc1nc2ccccc2c(n1)c3ccccc3,"hansch,c et al. (1995) ",3.1,15,12,2,0,0,0,0,0,0,0,,17,
piperacillin,C23H27N5O7S1,061477-96-1,O.CCN1CCN(C(=O)N[C@@H](C(=O)N[C@H]2[C@H]3SC(C)(C)[C@@H](N3C2=O)C(O)=O)c4ccccc4)C(=O)C1=O,biobyte (1995) ,0.5,23,27,5,7,1,0,0,0,0,0,,36,
dazolicine,C17H24Cl1N3S1,061477-97-2,CC(C)N1CCN=C1CN2CCCCSc3ccc(Cl)cc23,"hansch,c et al. (1995) ",5.15,17,24,3,0,1,0,0,1,0,0,,22,
4-isothiocyanatobutylbenzene,C11H13N1S1,not,S=C=NCCCCc1ccccc1,biobyte (1995) ,4,11,13,1,0,1,0,0,0,0,0,,13,
"5-[[3,5-bis(methylamino)phenyl]methyl]pyrimidine-2,4-diamine",C13H18N6,061544-27-2,CNc1cc(Cc2cnc(N)nc2N)cc(NC)c1,"hansch,c & leo,aj (1985) ",0.44,13,18,6,0,0,0,0,0,0,0,,19,
"5-[3-(tert-butylamino)-2-hydroxypropoxy]-3,4-dihydro-1h-isoquinoline-2-carbaldehyde",C17H26N2O3,061563-18-6,CC(C)(C)NCC(O)COc1cccc2CN(CCc12)C=O,biobyte starlist (2009) ,1.3,17,26,2,3,0,0,0,0,0,0,,22,
4-amino-2-pentoxybenzoic acid,C12H17N1O3,061566-63-0,CCCCCOc1cc(N)ccc1C(O)=O,"hansch,c et al. (1995) ",2.38,12,17,1,3,0,0,0,0,0,0,,16,
4-amino-2-(3-methylbutoxy)benzoic acid,C12H17N1O3,061566-64-1,CC(C)CCOc1cc(N)ccc1C(O)=O,"hansch,c et al. (1995) ",2.3,12,17,1,3,0,0,0,0,0,0,,16,
"5-[[3,5-bis(dimethylamino)phenyl]methyl]pyrimidine-2,4-diamine",C15H22N6,061573-39-5,CN(C)c1cc(Cc2cnc(N)nc2N)cc(c1)N(C)C,"hansch,c & leo,aj (1985) ",1.6,15,22,6,0,0,0,0,0,0,0,,21,
"6,6,9-trimethyl-3-(2-methyloctan-2-yl)-6a,7,10,10a-tetrahydrobenzo[c]chromen-1-ol",C25H38O2,061597-27-1,CCCCCCC(C)(C)c1cc(O)c2C3CC(=CCC3C(C)(C)Oc2c1)C,sangster (1993) ,9.96,25,38,0,2,0,0,0,0,0,0,,27,