Names,Formula,CAS No,SMILES,Reference,Exp logp,C,H,N,O,S,P,F,Cl,Br,I,,,
"2-(4-aminophenoxy)-6-(hydroxymethyl)oxane-3,4,5-triol",C12H17N1O6,020818-25-1,Nc1ccc(OC2OC(CO)C(O)C(O)C2O)cc1,"hansch,c & leo,aj (1985) ",-2.67,12,17,1,6,0,0,0,0,0,0,,19,
"2-(3-ethylphenoxy)-6-(hydroxymethyl)oxane-3,4,5-triol",C14H20O6,020838-34-0,CCc1cccc(OC2OC(CO)C(O)C(O)C2O)c1,"hansch,c & leo,aj (1985) ",0.31,14,20,0,6,0,0,0,0,0,0,,20,
"2-(3-tert-butylphenoxy)-6-(hydroxymethyl)oxane-3,4,5-triol",C16H24O6,020838-36-2,CC(C)(C)c1cccc(OC2OC(CO)C(O)C(O)C2O)c1,"hansch,c & leo,aj (1985) ",1.01,16,24,0,6,0,0,0,0,0,0,,22,
"2-(hydroxymethyl)-6-(4-iodophenoxy)oxane-3,4,5-triol",C12H15I1O6,020838-40-8,OCC1OC(Oc2ccc(I)cc2)C(O)C(O)C1O,"hansch,c & leo,aj (1985) ",0.75,12,15,0,6,0,0,0,0,0,1,,19,
"2-(hydroxymethyl)-6-(3-nitrophenoxy)oxane-3,4,5-triol",C12H15N1O8,020838-44-2,OCC1OC(Oc2cccc(c2)[N+]([O-])=O)C(O)C(O)C1O,"hansch,c & leo,aj (1985) ",-0.51,12,15,1,8,0,0,0,0,0,0,,21,
"n,n-dimethyl-1-(3-methylfuran-2-yl)methanamine",C8H13N1O1,020863-54-1,CN(C)Cc1occc1C,"hansch,c & leo,aj (1985) ",1.63,8,13,1,1,0,0,0,0,0,0,,10,
2-thiophen-2-ylacetonitrile,C6H5N1S1,020893-30-5,N#CCc1sccc1,"hansch,c et al. (1995) ",1.26,6,5,1,0,1,0,0,0,0,0,,8,
1-nitrosoazocane,C7H14N2O1,020917-49-1,O=NN1CCCCCCC1,"hansch,c & leo,aj (1985) ",1.48,7,14,2,1,0,0,0,0,0,0,,10,
1-nitrosoazonane,C8H16N2O1,020917-50-4,O=NN1CCCCCCCC1,"hansch,c & leo,aj (1985) ",2.04,8,16,2,1,0,0,0,0,0,0,,11,
n-(3-chlorophenyl)-n'-methylurea,C8H9Cl1N2O1,020940-42-5,CNC(=O)Nc1cccc(Cl)c1,"briggs,gg (1981) ",2.18,8,9,2,1,0,0,0,1,0,0,,12,
"3-(4-bromophenyl)-1,1-dimethylurea",C9H11Br1N2O1,020940-43-6,CN(C)C(=O)Nc1ccc(Br)cc1,"hansch,c & leo,aj (1985) ",2.19,9,11,2,1,0,0,0,0,1,0,,13,
2-piperazin-1-ylpyrimidine,C8H12N4,020980-22-7,C1CN(CCN1)c2ncccn2,"caccia,s et al. (1985) ",0.49,8,12,4,0,0,0,0,0,0,0,,12,
2-[(3-hydroxyphenyl)amino]benzoic acid,C13H11N1O3,021003-78-1,OC(=O)c1ccccc1Nc2cccc(O)c2,"hansch,c & leo,aj (1985) ",3.49,13,11,1,3,0,0,0,0,0,0,,17,
"4-amino-6-(3-methylbutyl)-3-methylsulfanyl-1,2,4-triazin-5-one",C9H16N4O1S1,021085-18-7,CSC1=NN=C(CCC(C)C)C(=O)N1N,"hansch,c & leo,aj (1985) ",1.85,9,16,4,1,1,0,0,0,0,0,,15,
"4-amino-6-cyclohexyl-3-methylsulfanyl-1,2,4-triazin-5-one",C10H16N4O1S1,021085-19-8,CSC1=NN=C(C2CCCCC2)C(=O)N1N,"hansch,c & leo,aj (1985) ",2.14,10,16,4,1,1,0,0,0,0,0,,16,
"4-amino-6-hexyl-3-methylsulfanyl-1,2,4-triazin-5-one",C10H18N4O1S1,021085-20-1,CCCCCCC1=NN=C(SC)N(N)C1=O,"hansch,c & leo,aj (1985) ",2.68,10,18,4,1,1,0,0,0,0,0,,16,
"4-amino-3-methylamino-6-propan-2-yl-1,2,4-triazin-5-one",C7H13N5O1,021087-57-0,CNC1=NN=C(C(C)C)C(=O)N1N,"hansch,c & leo,aj (1985) ",0.3,7,13,5,1,0,0,0,0,0,0,,13,
"4-amino-3-methylsulfanyl-6-(oxan-2-yl)-1,2,4-triazin-5-one",C9H14N4O2S1,021087-58-1,CSC1=NN=C(C2CCCCO2)C(=O)N1N,"hansch,c & leo,aj (1985) ",0.38,9,14,4,2,1,0,0,0,0,0,,16,
"4-amino-6-ethyl-3-methylsulfanyl-1,2,4-triazin-5-one",C6H10N4O1S1,021087-59-2,CCC1=NN=C(SC)N(N)C1=O,"hansch,c & leo,aj (1985) ",0.46,6,10,4,1,1,0,0,0,0,0,,12,
"4-amino-3-methylsulfanyl-6-propyl-1,2,4-triazin-5-one",C7H12N4O1S1,021087-60-5,CCCC1=NN=C(SC)N(N)C1=O,"hansch,c & leo,aj (1985) ",0.93,7,12,4,1,1,0,0,0,0,0,,13,
"4-amino-3-methylsulfanyl-6-propan-2-yl-1,2,4-triazin-5-one",C7H12N4O1S1,021087-61-6,CSC1=NN=C(C(C)C)C(=O)N1N,"hansch,c & leo,aj (1985) ",1.01,7,12,4,1,1,0,0,0,0,0,,13,
"4-amino-6-(2-methylpropyl)-3-methylsulfanyl-1,2,4-triazin-5-one",C8H14N4O1S1,021087-62-7,CSC1=NN=C(CC(C)C)C(=O)N1N,"hansch,c & leo,aj (1985) ",1.39,8,14,4,1,1,0,0,0,0,0,,14,
"4-amino-6-tert-butyl-3-methylsulfanyl-1,2,4-triazin-5-one",C8H14N4O1S1,021087-64-9,CSC1=NN=C(C(=O)N1N)C(C)(C)C,"hansch,c et al. (1995) ",1.7,8,14,4,1,1,0,0,0,0,0,,14,
"5-bromo-1,2-dimethyl-4-nitroimidazole",C5H6Br1N3O2,021117-52-2,Cn1c(C)nc(c1Br)[N+]([O-])=O,biobyte (1995) ,0.44,5,6,3,2,0,0,0,0,1,0,,11,
"5-ethyl-5-(3-methylbut-2-enyl)-1,3-diazinane-2,4,6-trione",C11H16N2O3,021149-88-2,CCC1(CC=C(C)C)C(=O)NC(=O)NC1=O,"prankerd,rj & mckeown,rh (1992) ",1.73,11,16,2,3,0,0,0,0,0,0,,16,
"n,n-dimethylquinolin-2-amine",C11H12N2,021154-18-7,CN(C)c1ccc2ccccc2n1,sangster (1993) ,2.81,11,12,2,0,0,0,0,0,0,0,,13,
2-amino-4-methyl-6-trichloromethyl-s-triazine,C5H5Cl3N4,021227-47-4,Cc1nc(N)nc(n1)C(Cl)(Cl)Cl,"sato,y et al. (1993) ",1.77,5,5,4,0,0,0,0,3,0,0,,12,
"4-diethylamino-n-(2,6-dimethylphenyl)butanamide",C16H26N2O1,021236-53-3,CCN(CC)CCCC(=O)Nc1c(C)cccc1C,sangster (1993) ,2.06,16,26,2,1,0,0,0,0,0,0,,19,
"2-dimethylamino-n-(2,6-dimethylphenyl)acetamide",C12H18N2O1,021236-54-4,CN(C)CC(=O)Nc1c(C)cccc1C,"hansch,c & leo,aj (1985) ",0.94,12,18,2,1,0,0,0,0,0,0,,15,
carbomycin b,C42H67N1O15,021238-30-2,CC1CC=CC=CC(=O)C(CC(C(C(C(CC(=O)O1)OC(=O)C)OC)OC2C(C(C(C(O2)C)OC3CC(C(C(O3)C)OC(=O)CC(C)C)(C)O)N(C)C)O)CC=O)C,"mcfarland,jw et al. (1997) ",3.52,42,67,1,15,0,0,0,0,0,0,,58,
"imidazol-5-conh2,4(33bis(2ohet)1-nnn",C8H14N6O3,021244-66-6,C1=NC(=C(N1)C(=O)N)N=NN(CCO)CCO,"hansch,c & leo,aj (1985) ",-1.09,8,14,6,3,0,0,0,0,0,0,,17,
"3-[4,5-di(phenyl)-1,3-oxazol-2-yl]propanoic acid",C18H15N1O3,021256-18-8,OC(=O)CCc1oc(c2ccccc2)c(n1)c3ccccc3,"hansch,c et al. (1995) ",4.19,18,15,1,3,0,0,0,0,0,0,,22,
"1-(4-methoxyphenyl)-6,6-dimethyl-1,3,5-triazine-2,4-diamine",C12H17N5O1,021316-30-3,COc1ccc(cc1)N2C(=NC(=NC2(C)C)N)N,"hansch,c & leo,aj (1985) ",0.4,12,17,5,1,0,0,0,0,0,0,,18,
"benzoic acid, 2-chloro-6-methyl-",C8H7Cl1O2,021327-86-6,Cc1cccc(Cl)c1C(O)=O,"sotomatsu,t et al. (1993) ",2.31,8,7,0,2,0,0,0,1,0,0,,11,
2-chloro-6-methylacetanilide,C9H10Cl1N1O1,021352-09-0,Clc1cccc(C)c1NC(=O)(C),"nakagawa,y et al. (1992) ",1.22,9,10,1,1,0,0,0,1,0,0,,12,
n-pyrazin-2-ylacetamide,C6H7N3O1,021352-21-6,CC(=O)Nc1cnccn1,"yamagami,c et al. (1990a) ",-0.03,6,7,3,1,0,0,0,0,0,0,,10,
n-ethylfuran-2-carboxamide,C7H9N1O2,021402-86-8,CCNC(=O)c1occc1,"hansch,c et al. (1995) ",0.61,7,9,1,2,0,0,0,0,0,0,,10,
"5,5-di(phenyl)-1-phenylsulfonylimidazolidine-2,4-dione",C21H16N2O4S1,021413-28-5,O=C1NC(=O)C(N1[S](=O)(=O)c2ccccc2)(c3ccccc3)c4ccccc4,daylight (1999) ,4.04,21,16,2,4,1,0,0,0,0,0,,28,
"4-bromo-1,2-dimethyl-5-nitroimidazole",C5H6Br1N3O2,021431-58-3,Cn1c(C)nc(Br)c1[N+]([O-])=O,biobyte (1995) ,0.87,5,6,3,2,0,0,0,0,1,0,,11,
"estra-1,3,5(10)-triene-3,17-diol, 11-methoxy-, (",C19H26O3,021507-14-2,CC42C(O)CCC4C1C(c3c(CC1)cc(O)cc3)C(OC)C2,sangster (1993) ,2.72,19,26,0,3,0,0,0,0,0,0,,22,
1-methyl-1-nitroso-3-phenylurea,C8H9N3O2,021561-99-9,CN(N=O)C(=O)Nc1ccccc1,"hansch,c et al. (1995) ",1.72,8,9,3,2,0,0,0,0,0,0,,13,
"2-(thiocyanatomethylsulfanyl)-1,3-benzothiazole",C9H6N2S3,021564-17-0,N#CSCSc1sc2ccccc2n1,chemicals inspection and testing institu (1992) ,3.3,9,6,2,0,3,0,0,0,0,0,,14,
azonane-2-thione,C8H15N1S1,021577-72-0,S=C1CCCCCCCN1,"hansch,c & leo,aj (1985) ",1.44,8,15,1,0,1,0,0,0,0,0,,10,
3-(acetyloxymethyl)-8-oxo-7-[(2-pyridin-4-ylsulfanylacetyl)amino]-5-thia-1-azabicyclo[4.2.0]oct-2-ene-2-carboxylic acid,C17H17N3O6S2,021593-23-7,CC(=O)OCC1=C(N2C(SC1)C(NC(=O)CSc3ccncc3)C2=O)C(O)=O,sangster (1994) ,-1.15,17,17,3,6,2,0,0,0,0,0,,28,
leptophos,C13H10Br1Cl2O2P1S1,021609-90-5,CO[P](=S)(Oc1cc(Cl)c(Br)cc1Cl)c2ccccc2,"hansch,c et al. (1995) ",6.31,13,10,0,2,1,1,0,2,1,0,,20,
"3-undecylbenzene-1,2-diol",C17H28O2,021704-31-4,CCCCCCCCCCCc1cccc(O)c1O,"itokawa,h et al. (1989) ",6.3,17,28,0,2,0,0,0,0,0,0,,19,
cyanazine,C9H13Cl1N6,021725-46-2,CCNc1nc(Cl)nc(NC(C)(C)C#N)n1,"hansch,c et al. (1995) ",2.22,9,13,6,0,0,0,0,1,0,0,,16,
"[7-nitro-2-[(propan-2-ylamino)methyl]-1,2,3,4-tetrahydroquinolin-6-yl]methanol",C14H21N3O3,021738-42-1,CC(C)NCC1CCc2cc(CO)c(cc2N1)[N+]([O-])=O,sangster (1993) ,2.24,14,21,3,3,0,0,0,0,0,0,,20,
"acetic acid, 1-(3,4-dichlorophenyl)-2,2,2-trichl",C10H7Cl5O2,021757-82-4,CC(=O)OC(C(Cl)(Cl)Cl)c1ccc(Cl)c(Cl)c1,"hu,j & leng,xf (1992) ",4.92,10,7,0,2,0,0,0,5,0,0,,17,
"ethyl 5-fluoro-2,4-dioxopyrimidine-1-carboxylate",C7H7F1N2O4,021839-33-8,CCOC(=O)N1C=C(F)C(=O)NC1=O,"hansch,c et al. (1995) ",-0.17,7,7,2,4,0,0,1,0,0,0,,14,
"o,o-diet-o(3-cl-4-mesph)phosphorothioate",C11H16Cl1O3P1S2,021840-66-4,CCOP(=S)(Oc1cc(Cl)c(SC)cc1)OCC,"hansch,c & leo,aj (1985) ",5.06,11,16,0,3,2,1,0,1,0,0,,18,
"3-phenyl-3-[1-(phenylmethyl)piperidin-4-yl]piperidine-2,6-dione",C23H26N2O2,021888-98-2,O=C1CCC(C2CCN(CC2)Cc3ccccc3)(C(=O)N1)c4ccccc4,"hansch,c et al. (1995) ",3.55,23,26,2,2,0,0,0,0,0,0,,27,
"5,5-di(phenyl)-1,3-diazinane-2,4,6-trione",C16H12N2O3,021914-07-8,O=C1NC(=O)C(C(=O)N1)(c2ccccc2)c3ccccc3,"prankerd,rj & mckeown,rh (1992) ",1.96,16,12,2,3,0,0,0,0,0,0,,21,
2-methylsulfanylpyrazine,C5H6N2S1,021948-70-9,CSc1cnccn1,"yamagami,c et al. (1990a) ",1.17,5,6,2,0,1,0,0,0,0,0,,8,
2-methylsulfanylquinoxaline,C9H8N2S1,021948-73-2,CSc1cnc2ccccc2n1,sangster (1993) ,2.79,9,8,2,0,1,0,0,0,0,0,,12,
2-(5-no2-2-furylvinyl)5-nh2-3-oxoimdazoline,C8H6N4O4,021959-57-9,Nc1nc(C=Cc2ccc(N(=O)(=O))o2)no1,"hansch,c et al. (1995) ",1.3,8,6,4,4,0,0,0,0,0,0,,16,
4-nitro-3-(trifluoromethyl)benzenesulfonamide,C7H5F3N2O4S1,021988-05-6,N[S](=O)(=O)c1ccc(c(c1)C(F)(F)F)[N+]([O-])=O,"hansch,c et al. (1995) ",1.73,7,5,2,4,1,0,3,0,0,0,,17,
methyl 4-(methylcarbamoyloxy)benzoate,C10H11N1O4,021998-12-9,CNC(=O)Oc1ccc(cc1)C(=O)OC,"hansch,c et al. (1995) ",1.5,10,11,1,4,0,0,0,0,0,0,,15,
"1-(4-ethyl-2,5-dimethoxyphenyl)propan-2-amine",C13H21N1O2,022004-32-6,CCc1cc(OC)c(CC(C)N)cc1OC,"hansch,c et al. (1995) ",2.81,13,21,1,2,0,0,0,0,0,0,,16,
"2-propenoic acid, 3-(3,4-dihydroxyphenyl)-, buty",C13H16O4,022020-28-6,CCCCOC(=O)C=Cc1ccc(O)c(O)c1,"naito,y et al. (1991) ",3.53,13,16,0,4,0,0,0,0,0,0,,17,
"1,3-benzodioxole-5-carbohydrazide",C8H8N2O3,022026-39-7,NNC(=O)c1ccc2OCOc2c1,sangster (1994) ,1.16,8,8,2,3,0,0,0,0,0,0,,13,
3-bromofuran,C4H3Br1O1,022037-28-1,Brc1cocc1,"hansch,c et al. (1995) ",2.18,4,3,0,1,0,0,0,0,1,0,,6,
2-(4-formylphenoxy)acetic acid,C9H8O4,022042-71-3,OC(=O)COc1ccc(C=O)cc1,"hansch,c et al. (1995) ",0.79,9,8,0,4,0,0,0,0,0,0,,13,
1-pyrazin-2-ylethanone,C6H6N2O1,022047-25-2,CC(=O)c1cnccn1,"yamagami,c et al. (1990a) ",0.2,6,6,2,1,0,0,0,0,0,0,,9,
1-aminocyclopropane-1-carboxylic acid,C4H7N1O2,022059-21-8,NC1(CC1)C(O)=O,"tsai,rs et al. (1991) ",-2.78,4,7,1,2,0,0,0,0,0,0,,7,
2-[3-(benzoyl)phenyl]propanoic acid,C16H14O3,022071-15-4,CC(C(O)=O)c1cccc(c1)C(=O)c2ccccc2,sangster (1993) ,3.12,16,14,0,3,0,0,0,0,0,0,,19,
alcofenac,C11H11Cl1O3,022131-79-9,c1(Cl)cc(CC(=O)(O))ccc1OCC=C,"hansch,c et al. (1995) ",2.48,11,11,0,3,0,0,0,1,0,0,,15,
3-pentachlorocyclohexane,C6H7Cl5,056994-23-1,C1C(Cl)C(Cl)C(Cl)C(Cl)C1Cl,"hansch,c & leo,aj (1985) ",3.37,6,7,0,0,0,0,0,5,0,0,,11,
n-(3-chloro-4-methylphenyl)-n'-methylurea,C9H11Cl1N2O1,022175-22-0,CNC(=O)Nc1ccc(C)c(Cl)c1,"briggs,gg (1981) ",2.61,9,11,2,1,0,0,0,1,0,0,,13,
"glycine, n-[n-[1-oxo-5-(7h-purin-6-ylthio)pentyl",C16H22N6O4S1,022181-95-9,CCOC(=O)CNC(=O)CNC(=O)CCCCSC1=NC=NC2=C1NC=N2,"hansch,c et al. (1995) ",0.5,16,22,6,4,1,0,0,0,0,0,,27,
2-(6-methoxynaphthalen-2-yl)propanoic acid,C14H14O3,022204-53-1,COc1ccc2cc(ccc2c1)C(C)C(O)=O,"hansch,c et al. (1995) ",3.18,14,14,0,3,0,0,0,0,0,0,,17,
n-[ethoxy-(3-methyl-4-methylsulfanylphenoxy)phosphoryl]propan-2-amine,C13H22N1O3P1S1,022224-92-6,CCO[P](=O)(NC(C)C)Oc1ccc(SC)c(C)c1,"hansch,c et al. (1995) ",3.23,13,22,1,3,1,1,0,0,0,0,,19,
"2,3,4,5,6-pentachlorodiphenylether",C12H5Cl5O1,022274-42-6,c1(Oc2ccccc2)c(Cl)c(Cl)c(Cl)c(Cl)c1Cl,"kurz,j & ballschmiter,k (1999) ",6.37,12,5,0,1,0,0,0,5,0,0,,18,
"5-phenyl-1,3-diazinane-2,4,6-trione",C10H8N2O3,022275-34-9,O=C1NC(=O)C(C(=O)N1)c2ccccc2,sangster (1993) ,-0.17,10,8,2,3,0,0,0,0,0,0,,15,
3-sh-4-nh2-6ipr-124triazine-5-one,C6H10N4O1S1,022278-77-9,CC(C)C1=NN=C(S)N(N)C1(=O),"hansch,c et al. (1995) ",1.22,6,10,4,1,1,0,0,0,0,0,,12,
"3-methyl-1,2,3-benzotriazin-4-one",C8H7N3O1,022305-44-8,CN1N=Nc2ccccc2C1=O,"hansch,c et al. (1995) ",0.84,8,7,3,1,0,0,0,0,0,0,,12,
clobazam,C16H13Cl1N2O2,022316-47-8,CN1C(=O)CC(=O)N(c2ccccc2)c3cc(Cl)ccc13,"henczi,m et al. (1995) ",2.12,16,13,2,2,0,0,0,1,0,0,,21,
"piperidine, 1-(2-chlorobenzoyl)-",C12H14Cl1N1O1,022342-21-8,Clc1ccccc1C(=O)N2CCCCC2,"suryanarayana,mvs et al. (1991) ",2.8,12,14,1,1,0,0,0,1,0,0,,15,
heptanehydrazide,C7H16N2O1,022371-32-0,CCCCCCC(=O)NN,"hansch,c et al. (1995) ",0.97,7,16,2,1,0,0,0,0,0,0,,10,
4-phenylbutan-2-amine,C10H15N1,022374-89-6,CC(N)CCc1ccccc1,"kril,mb & fung,hl (1990) ",2.12,10,15,1,0,0,0,0,0,0,0,,11,
2-methyl-1-phenyl-3-piperidin-1-ylpropan-1-one,C15H21N1O1,022385-99-5,CC(CN1CCCCC1)C(=O)c2ccccc2,sangster (1994) ,3.51,15,21,1,1,0,0,0,0,0,0,,17,
"3-pyridazinamine, 4-hydroxy-n,n,6-trimethyl-",C7H11N3O1,022390-38-1,CN(C)c1nnc(C)cc1O,sangster (1994) ,0.24,7,11,3,1,0,0,0,0,0,0,,11,
diethyl 2-[(4-nitrophenyl)methylidene]propanedioate,C14H15N1O6,022399-00-4,CCOC(=O)C(=Cc1ccc(cc1)[N+]([O-])=O)C(=O)OCC,"hansch,c et al. (1995) ",3.03,14,15,1,6,0,0,0,0,0,0,,21,
diethyl 2-[(4-bromophenyl)methylidene]propanedioate,C14H15Br1O4,022399-01-5,CCOC(=O)C(=Cc1ccc(Br)cc1)C(=O)OCC,"hansch,c et al. (1995) ",4.02,14,15,0,4,0,0,0,0,1,0,,19,
3-(phenoxy)propanamide,C9H11N1O2,022409-37-6,NC(=O)CCOc1ccccc1,"hansch,c et al. (1995) ",0.8,9,11,1,2,0,0,0,0,0,0,,12,
n-quinolin-6-ylacetamide,C11H10N2O1,036164-42-8,CC(=O)Nc1ccc2ncccc2c1,"hansch,c et al. (1995) ",1.55,11,10,2,1,0,0,0,0,0,0,,14,
"5-(2,4-difluorophenyl)-2-hydroxybenzoic acid",C13H8F2O3,022494-42-4,OC(=O)c1cc(ccc1O)c2ccc(F)cc2F,sangster (1993) ,4.44,13,8,0,3,0,0,2,0,0,0,,18,
(2-hydroxyphenyl)-pyridin-4-ylmethanone,C12H9N1O2,022526-29-0,Oc1ccccc1C(=O)c2ccncc2,"hansch,c & leo,aj (1985) ",2.13,12,9,1,2,0,0,0,0,0,0,,15,
"5-phenyloxolane-2,4-dione",C10H8O3,022609-88-7,O=C1CC(=O)C(O1)c2ccccc2,"lipinski,ca et al. (1991) ",1.47,10,8,0,3,0,0,0,0,0,0,,13,
(2-methylphenyl)-phenylmethanimine,C14H13N1,022627-00-5,Cc1ccccc1C(=N)c2ccccc2,"hansch,c & leo,aj (1985) ",3.21,14,13,1,0,0,0,0,0,0,0,,15,
"o,o'-dimethylbenzophenoneimine",C15H15N1,022627-01-6,Cc1c(C(=N)c2c(C)cccc2)cccc1,"hansch,c & leo,aj (1985) ",3.31,15,15,1,0,0,0,0,0,0,0,,16,
"2,6-dimethylbenzophenoneimine",C15H15N1,022627-02-7,Cc1cccc(C)c1C(=N)c2ccccc2,"hansch,c & leo,aj (1985) ",3.53,15,15,1,0,0,0,0,0,0,0,,16,
"[4-[2-hydroxy-3-(propan-2-ylamino)propoxy]-2,3,6-trimethylphenyl] acetate",C17H27N1O4,022664-55-7,CC(C)NCC(O)COc1cc(C)c(OC(C)=O)c(C)c1C,"mannhold,r et al. (1990) ",2.66,17,27,1,4,0,0,0,0,0,0,,22,
n-hydroxy-1-[2-(2-hydroxyethylamino)-2-oxoethyl]imidazol-2-amine oxide,C7H10N4O4,022668-01-5,OCCNC(=O)Cn1ccnc1[NH+](O)[O-],"hansch,c & leo,aj (1985) ",-1.34,7,10,4,4,0,0,0,0,0,0,,15,
124-benzthiadiazn-1-o2-3-me-8-cl,C8H7Cl1N2O2S1,022680-31-5,Clc1cccc2c1S(=O)(=O)N=C(C)N2,"hansch & leo, 1985",1.83,8,7,2,2,1,0,0,1,0,0,,14,
1-butanoylpyrrolidin-2-one,C8H13N1O2,022707-38-6,CCCC(=O)N1CCCC1=O,sangster (1994) ,1.18,8,13,1,2,0,0,0,0,0,0,,11,
3-bromobenzamide,C7H6Br1N1O1,022726-00-7,NC(=O)c1cccc(Br)c1,"hansch,c et al. (1995) ",1.65,7,6,1,1,0,0,0,0,1,0,,10,
"n-[4-(benzoyl)phenyl]-1,1,1-trifluoromethanesulfonamide",C14H10F3N1O3S1,022731-28-8,FC(F)(F)[S](=O)(=O)Nc1ccc(cc1)C(=O)c2ccccc2,"hansch,c et al. (1995) ",4.28,14,10,1,3,1,0,3,0,0,0,,22,
"n-[3-(benzoyl)phenyl]-1,1-difluoromethanesulfonamide",C14H11F2N1O3S1,022736-85-2,FC(F)[S](=O)(=O)Nc1cccc(c1)C(=O)c2ccccc2,"hansch,c et al. (1995) ",2.86,14,11,1,3,1,0,2,0,0,0,,21,
"(2,2-dimethyl-1,3-benzodioxol-4-yl) n-methylcarbamate",C11H13N1O4,022781-23-3,CNC(=O)Oc1cccc2OC(C)(C)Oc12,"hansch,c et al. (1995) ",1.7,11,13,1,4,0,0,0,0,0,0,,16,
methyl 4-sulfamoylbenzoate,C8H9N1O4S1,022808-73-7,COC(=O)c1ccc(cc1)[S](N)(=O)=O,"hansch,c et al. (1995) ",0.64,8,9,1,4,1,0,0,0,0,0,,14,
n-(4-methylsulfonylphenyl)acetamide,C9H11N1O3S1,022821-80-3,CC(=O)Nc1ccc(cc1)[S](C)(=O)=O,pomona (1987) ,0.58,9,11,1,3,1,0,0,0,0,0,,14,
"n-(4-hydroxy-3,5-dimethylphenyl)acetamide",C10H13N1O2,022900-79-4,CC(=O)Nc1cc(C)c(O)c(C)c1,"hansch,c et al. (1995) ",1.11,10,13,1,2,0,0,0,0,0,0,,13,
methyl thiophene-3-carboxylate,C6H6O2S1,022913-26-4,COC(=O)c1cscc1,"hansch,c et al. (1995) ",1.76,6,6,0,2,1,0,0,0,0,0,,9,
"n'-ethyl-n-(3-methylbutan-2-yl)-6-methylsulfanyl-1,3,5-triazine-2,4-diamine",C11H21N5S1,022936-75-0,CCNc1nc(NC(C)C(C)C)nc(SC)n1,"hansch,c et al. (1995) ",3.9,11,21,5,0,1,0,0,0,0,0,,17,
"1,3,5-triazine-2,4-diamine, 6-chloro-n-cycloprop",C8H12Cl1N5,022936-85-2,Clc1nc(NCC)nc(NC2CC2)n1,sangster (1993) ,2.17,8,12,5,0,0,0,0,1,0,0,,14,
cyprazine,C9H14Cl1N5,022936-86-3,CCSC(=O)N(CC)CC.CC(C)Nc1nc(Cl)nc(NC2CC2)n1,sangster (1993) ,3.06,9,14,5,0,0,0,0,1,0,0,,15,
2-(2-nitroimidazol-1-yl)-n-(phenylmethyl)acetamide,C12H12N4O3,022994-85-0,[O-][N+](=O)c1nccn1CC(=O)NCc2ccccc2,sangster (1993) ,0.91,12,12,4,3,0,0,0,0,0,0,,19,
2-[2-(2-hydroxyethoxy)ethoxy]ethyl benzoate,C13H18O5,023022-51-7,OCCOCCOCCOC(=O)c1ccccc1,"leahy,de et al. (1989) ",1.09,13,18,0,5,0,0,0,0,0,0,,18,
"5-[2-(tert-butylamino)-1-hydroxyethyl]benzene-1,3-diol",C12H19N1O3,023031-25-6,CC(C)(C)NCC(O)c1cc(O)cc(O)c1,"tacaks-novak,k et al. (1995) ",0.9,12,19,1,3,0,0,0,0,0,0,,16,
"(2-methyl-4-oxo-3-prop-2-ynyl-1-cyclopent-2-enyl) 2,2-dimethyl-3-(2-methylprop-1-enyl)cyclopropane-1-carboxylate",C19H24O3,023031-36-9,CC(C)=CC1C(C(=O)OC2CC(=O)C(=C2C)CC#C)C1(C)C,"tomlin,c (1994) ",4.49,19,24,0,3,0,0,0,0,0,0,,22,
n-(4-aminophenyl)-3-diethylaminopropanamide,C13H21N3O1,023043-12-1,CCN(CC)CCC(=O)Nc1ccc(N)cc1,biobyte starlist (2009) ,0.8,13,21,3,1,0,0,0,0,0,0,,17,
quinoxaline-6-carbonitrile,C9H5N3,023088-24-6,N#Cc1ccc2nccnc2c1,"hansch,c & leo,aj (1985) ",1.01,9,5,3,0,0,0,0,0,0,0,,12,
"2h-1,4-benzodiazepin-2-one, 7-chloro-1,3-dihydro",C17H12Cl1F3N2O1,023092-17-3,c1cc2N(CC(F)(F)F)C(=O)CN=C(c3ccccc3)c2cc1Cl,sangster (1994) ,3.97,17,12,2,1,0,0,3,1,0,0,,24,
"n,n-dimethyl-4-phenylphthalazin-1-amine",C16H15N3,023099-85-6,CN(C)c1nnc(c2ccccc2)c3ccccc13,"hansch,c & leo,aj (1985) ",3.22,16,15,3,0,0,0,0,0,0,0,,19,
"(2-dimethylamino-5,6-dimethylpyrimidin-4-yl) n,n-dimethylcarbamate",C11H18N4O2,023103-98-2,CN(C)C(=O)Oc1nc(nc(C)c1C)N(C)C,"tomlin,c (1994) ",1.7,11,18,4,2,0,0,0,0,0,0,,17,
oxamyl,C7H13N3O3S1,023135-22-0,CNC(=O)O\N=C(SC)\C(=O)N(C)C,"hansch,c et al. (1995) ",-0.47,7,13,3,3,1,0,0,0,0,0,,14,
3-t-butylhydrochlorothiazide,C11H16Cl1N3O4S2,023141-84-6,CC(C)(C)C1NS(=O)(=O)c2c(cc(Cl)c(S(=O)(=O)N)c2)N1,"hansch,c et al. (1995) ",0.36,11,16,3,4,2,0,0,1,0,0,,21,
"3-(cyclopentylmethyl)-1,1-dioxo-3,4-dihydro-2h-benzo[e][1,2,4]thiadiazine-7-sulfonamide",C13H19N3O4S2,023141-86-8,N[S](=O)(=O)c1ccc2NC(CC3CCCC3)N[S](=O)(=O)c2c1,"hansch,c et al. (1995) ",1.24,13,19,3,4,2,0,0,0,0,0,,22,
butachlor,C17H26Cl1N1O2,023184-66-9,CCCCOCN(C(=O)CCl)c1c(CC)cccc1CC,"hansch,c et al. (1995) ",4.5,17,26,1,2,0,0,0,1,0,0,,21,
"5,5-bis(phenylmethyl)imidazolidine-2,4-dione",C17H16N2O2,023186-94-9,O=C1NC(=O)C(Cc2ccccc2)(Cc3ccccc3)N1,sangster (1994) ,2.46,17,16,2,2,0,0,0,0,0,0,,21,
"phenylacetic acid,2-(2'-cl-6-me)anilino",C15H14Cl1N1O2,023189-28-8,Cc1c(Nc2c(CC(=O)(O))cccc2)c(Cl)ccc1,"hansch,c et al. (1995) ",4.37,15,14,1,2,0,0,0,1,0,0,,19,
"1-methyl-7-methylsulfanyl-5-phenyl-3h-1,4-benzodiazepin-2-one",C17H16N2O1S1,023193-98-8,CSc1ccc2N(C)C(=O)CN=C(c3ccccc3)c2c1,"hansch,c & leo,aj (1985) ",2.95,17,16,2,1,1,0,0,0,0,0,,21,
2-phenyl-4-propan-2-ylmorpholine,C13H19N1O1,023222-62-0,CC(C)N1CCOC(C1)c2ccccc2,"hansch,c et al. (1995) ",2.3,13,19,1,1,0,0,0,0,0,0,,15,
4-isothiocyanato-n-phenylaniline,C13H10N2S1,023246-36-8,S=C=Nc1ccc(Nc2ccccc2)cc1,"hansch,c & leo,aj (1985) ",4.94,13,10,2,0,1,0,0,0,0,0,,16,
"2(5h)-furanone, 5-(4-hexen-2-ynylidene)-",C10H8O2,023251-68-5,CC=CC#CC=C1OC(=O)C=C1,"mclachlan,d et al. (1986) ",2.09,10,8,0,2,0,0,0,0,0,0,,12,
"1,2-bis(oxiran-2-yl)ethane-1,2-diol",C6H10O4,023261-20-3,OC(C(O)C1CO1)C2CO2,"hansch,c & leo,aj (1985) ",-1.29,6,10,0,4,0,0,0,0,0,0,,10,
"2,3,5,6-tetramethyl-1,4-dinitrosopiperazine",C8H16N4O2,023264-57-5,CC1C(C)N(N=O)C(C)C(C)N1N=O,"hansch,c & leo,aj (1985) ",0.91,8,16,4,2,0,0,0,0,0,0,,14,
2-acetamido-3-hydroxypropanamide,C5H10N2O3,023361-38-8,CC(=O)NC(CO)C(N)=O,sangster (1994) ,-1.87,5,10,2,3,0,0,0,0,0,0,,10,
"glycine, n-[n-[n-[1-oxo-5-(7h-purin-6-ylthio)pen",C18H25N7O5S1,023374-45-0,CCOC(=O)CNC(=O)CNC(=O)CNC(=O)CCCCSC1=NC=NC2=C1NC=N2,sangster (1993) ,0.21,18,25,7,5,1,0,0,0,0,0,,31,
"1,1,1-trifluoro-n-(4-methylsulfanylphenyl)methanesulfonamide",C8H8F3N1O2S2,023375-06-6,CSc1ccc(N[S](=O)(=O)C(F)(F)F)cc1,"hansch,c & leo,aj (1985) ",3.74,8,8,1,2,2,0,3,0,0,0,,16,