Names,Formula,CAS No,SMILES,Reference,Exp logp,C,H,N,O,S,P,F,Cl,Br,I,,,
chlorothalonil,C8Cl4N2,001897-45-6,Clc1c(Cl)c(C#N)c(Cl)c(C#N)c1Cl,"krawchuk,bp & webster,grb (1987) ",3.05,8,0,2,0,0,0,0,4,0,0,,14,
"quinazoline-2,4-diamine",C8H8N4,001899-48-5,Nc1nc(N)c2ccccc2n1,"hansch,c et al. (1995) ",1,8,8,4,0,0,0,0,0,0,0,,12,
3-methylbenzenesulfonamide,C7H9N1O2S1,001899-94-1,Cc1cccc(c1)[S](N)(=O)=O,"hansch,c et al. (1995) ",0.85,7,9,1,2,1,0,0,0,0,0,,11,
2-aminobenzohydrazide,C7H9N3O1,001904-58-1,NNC(=O)c1ccccc1N,"hansch,c et al. (1995) ",-0.18,7,9,3,1,0,0,0,0,0,0,,11,
atrazine,C8H14Cl1N5,001912-24-9,CCNc1nc(Cl)nc(NC(C)C)n1,"hansch,c et al. (1995) ",2.61,8,14,5,0,0,0,0,1,0,0,,14,
ipazine,C10H18Cl1N5,001912-25-0,CCN(CC)c1nc(Cl)nc(NC(C)C)n1,"hansch,c et al. (1995) ",3.94,10,18,5,0,0,0,0,1,0,0,,16,
trietazine,C9H16Cl1N5,001912-26-1,CCNc1nc(Cl)nc(n1)N(CC)CC,"hansch,c et al. (1995) ",3.34,9,16,5,0,0,0,0,1,0,0,,15,
dicamba,C8H6Cl2O3,001918-00-9,COc1c(Cl)ccc(Cl)c1C(O)=O,"hansch,c et al. (1995) ",2.21,8,6,0,3,0,0,0,2,0,0,,13,
picloram,C6H3Cl3N2O2,001918-02-1,Nc1c(Cl)c(Cl)nc(C(O)=O)c1Cl,"tomlin,c (2003) ",1.9,6,3,2,2,0,0,0,3,0,0,,13,
propachlor,C11H14Cl1N1O1,001918-16-7,CC(C)N(C(=O)CCl)c1ccccc1,"hansch,c et al. (1995) ",2.18,11,14,1,1,0,0,0,1,0,0,,14,
"methyl (3,4-dichlorophenyl)carbamate",C8H7Cl2N1O2,001918-18-9,COC(=O)Nc1ccc(Cl)c(Cl)c1,sangster (1993) ,3.32,8,7,1,2,0,0,0,2,0,0,,13,
"2-ethylhexyl 2,4-dichlorophenoxyacetate",C16H22Cl2O3,001928-43-4,CCCCC(CC)COC(=O)COc1ccc(Cl)cc1Cl,"tomlin,c (2003) ",5.78,16,22,0,3,0,0,0,2,0,0,,21,
s-propyl (dipropylamino)methanethioate,C10H21N1O1S1,001929-77-7,CCCSC(=O)N(CCC)CCC,"tomlin,c (1997) ",3.84,10,21,1,1,1,0,0,0,0,0,,13,
nitrapyrin,C6H3Cl4N1,001929-82-4,Clc1cccc(n1)C(Cl)(Cl)Cl,"hansch,c et al. (1995) ",3.41,6,3,1,0,0,0,0,4,0,0,,11,
n-methyl-n-phenylbenzamide,C14H13N1O1,001934-92-5,CN(c1ccccc1)C(=O)c2ccccc2,"hansch,c et al. (1995) ",2.36,14,13,1,1,0,0,0,0,0,0,,16,
2-phenyl-n-[3-(trifluoromethyl)phenyl]acetamide,C15H12F3N1O1,001939-21-5,FC(F)(F)c1cccc(NC(=O)Cc2ccccc2)c1,biobyte (1995) ,3.84,15,12,1,1,0,0,3,0,0,0,,20,
"5,7-undecanedione",C11H20O2,001942-48-9,CCCCC(=O)CC(=O)CCCC,sangster (1994) ,3.56,11,20,0,2,0,0,0,0,0,0,,13,
phenyl n-methylcarbamate,C8H9N1O2,001943-79-9,CNC(=O)Oc1ccccc1,"hansch,c et al. (1995) ",1.24,8,9,1,2,0,0,0,0,0,0,,11,
methyl n-(4-nitrophenyl)carbamate,C8H8N2O4,001943-87-9,COC(=O)Nc1ccc(cc1)[N+]([O-])=O,"takahashi,k et al. (1988) ",2.12,8,8,2,4,0,0,0,0,0,0,,14,
4-(4-nitrophenyl)sulfonylaniline,C12H10N2O4S1,001948-92-1,Nc1ccc(cc1)[S](=O)(=O)c2ccc(cc2)[N+]([O-])=O,"altomare,c et al. (1991) ",2.04,12,10,2,4,1,0,0,0,0,0,,19,
"(2-butyl-1-benzofuran-3-yl)-[4-(2-diethylaminoethoxy)-3,5-diiodophenyl]methanone",C25H29I2N1O3,001951-25-3,CCCCc1oc2ccccc2c1C(=O)c3cc(I)c(OCCN(CC)CC)c(I)c3,"avdeef,a (1997) ",7.57,25,29,1,3,0,0,0,0,0,2,,31,
"5-butyl-1,3-diazinane-2,4,6-trione",C8H12N2O3,001953-33-9,CCCCC1C(=O)NC(=O)NC1=O,"hansch,c et al. (1995) ",0.77,8,12,2,3,0,0,0,0,0,0,,13,
1h-indol-5-ol,C8H7N1O1,001953-54-4,Oc1ccc2[nH]ccc2c1,sangster (1993) ,1.11,8,7,1,1,0,0,0,0,0,0,,10,
"1,4-benzodiazpn2-on,1-me5(4-clph)7f",C16H12Cl1F1N2O1,001959-97-3,CN1C(=O)CN=C(c3ccc(Cl)cc3)c2c1ccc(F)c2,"hansch,c et al. (1995) ",3.1,16,12,2,1,0,0,1,1,0,0,,21,
"dibutyl benzene-1,4-dicarboxylate",C16H22O4,001962-75-0,CCCCOC(=O)c1ccc(cc1)C(=O)OCCCC,"hansch,c et al. (1995) ",5.53,16,22,0,4,0,0,0,0,0,0,,20,
(4-bromophenyl)urea,C7H7Br1N2O1,001967-25-5,NC(=O)Nc1ccc(Br)cc1,"hansch,c et al. (1995) ",1.98,7,7,2,1,0,0,0,0,1,0,,11,
m-chlorophenylurea,C7H7Cl1N2O1,001967-27-7,NC(=O)Nc1cccc(Cl)c1,"hansch,c et al. (1995) ",1.82,7,7,2,1,0,0,0,1,0,0,,11,
2-methyl-3-nitrobenzoic acid,C8H7N1O4,001975-50-4,Cc1c(cccc1[N+]([O-])=O)C(O)=O,biobyte starlist (2009) ,2.16,8,7,1,4,0,0,0,0,0,0,,13,
"4-(4-fluorophenyl)-1,2,3,6-tetrahydropyridine",C11H12F1N1,001978-59-2,Fc1ccc(cc1)C2=CCNCC2,"altomare,ca et al. (1992) ",2.37,11,12,1,0,0,0,1,0,0,0,,13,
10-[(1-methylpyrrolidin-3-yl)methyl]phenothiazine,C18H20N2S1,001982-37-2,CN1CCC(C1)CN2c3ccccc3Sc4ccccc24,"hansch,c et al. (1995) ",5.23,18,20,2,0,1,0,0,0,0,0,,21,
chloroxuron,C15H15Cl1N2O2,001982-47-4,CN(C)C(=O)Nc1ccc(Oc2ccc(Cl)cc2)cc1,"liu,j & qian,c (1995) ",3.7,15,15,2,2,0,0,0,1,0,0,,20,
1-(2-methylcyclohexyl)-3-phenylurea,C14H20N2O1,001982-49-6,CC1CCCCC1NC(=O)Nc2ccccc2,"tomlin,c (1997) ",3.8,14,20,2,1,0,0,0,0,0,0,,17,
"benzene, 1,2-dichloro-3-methoxy-",C7H6Cl2O1,001984-59-4,COc1cccc(Cl)c1Cl,"lun,r et al. (1995) ",3.24,7,6,0,1,0,0,0,2,0,0,,10,
"benzene, 1,3-dichloro-2-methoxy-",C7H6Cl2O1,001984-65-2,COc1c(Cl)cccc1Cl,"lun,r et al. (1995) ",3.14,7,6,0,1,0,0,0,2,0,0,,10,
1-bromo-4-isothiocyanatobenzene,C7H4Br1N1S1,001985-12-2,Brc1ccc(cc1)N=C=S,"hansch,c et al. (1995) ",4.03,7,4,1,0,1,0,0,0,1,0,,10,
"[2,2-dimethyl-3-(2-methylprop-2-enoyloxy)propyl] 2-methylprop-2-enoate",C13H20O4,001985-51-9,CC(=C)C(=O)OCC(C)(C)COC(=O)C(C)=C,sangster (1993) ,2.79,13,20,0,4,0,0,0,0,0,0,,17,
9h-fluorene-9-carboxylic acid,C14H10O2,001989-33-9,OC(=O)C1c2ccccc2c3ccccc13,"hansch,c et al. (1995) ",2.8,14,10,0,2,0,0,0,0,0,0,,16,
2-phenylguanidine,C7H9N3,002002-16-6,NC(N)=Nc1ccccc1,"hansch,c et al. (1995) ",0.53,7,9,3,0,0,0,0,0,0,0,,10,
flumethasone-21-pivalate,C27H36F2O6,002002-29-1,CC1CC2C3CC(C4=CC(=O)C=CC4(C3(C(CC2(C1(C(=O)COC(=O)C(C)(C)C)O)C)O)F)C)F,"hansch,c et al. (1995) ",3.86,27,36,0,6,0,0,2,0,0,0,,35,
9-pentylpurin-6-amine,C10H15N5,002002-36-0,CCCCCn1cnc2c(N)ncnc12,"hansch,c et al. (1995) ",1.79,10,15,5,0,0,0,0,0,0,0,,15,
s-ethyl (bis(2-methylpropyl)amino)methanethioate,C11H23N1O1S1,002008-41-5,CCSC(=O)N(CC(C)C)CC(C)C,"hansch,c et al. (1995) ",4.15,11,23,1,1,1,0,0,0,0,0,,14,
"2,6-dichlorobenzamide",C7H5Cl2N1O1,002008-58-4,NC(=O)c1c(Cl)cccc1Cl,"nakagawa,y et al. (1992) ",0.77,7,5,1,1,0,0,0,2,0,0,,11,
"1-(3,4-diclphenyl)-3-phenylurea",C13H10Cl2N2O1,002008-73-3,Clc1c(Cl)ccc(NC(=O)Nc2ccccc2)c1,"hansch,c et al. (1995) ",4.7,13,10,2,1,0,0,0,2,0,0,,18,
"benzeneacetonitrile, 4-chloro-.alpha.-(1-methyle",C11H12Cl1N1,002012-81-9,CC(C)C(c1ccc(Cl)cc1)C(#N),"wang,w et al. (1987) ",3.41,11,12,1,0,0,0,0,1,0,0,,13,
2-acetamido-3-phenylpropanoic acid,C11H13N1O3,002018-61-3,CC(=O)NC(Cc1ccccc1)C(O)=O,"green,pg et al. (1991) ",0.93,11,13,1,3,0,0,0,0,0,0,,15,
"5-phenylisoindole-1,3-dione",C14H9N1O2,002021-26-3,O=C1NC(=O)c2cc(ccc12)c3ccccc3,sangster (1993) ,2.97,14,9,1,2,0,0,0,0,0,0,,17,
ethyl 3-phenylpropanoate,C11H14O2,002021-28-5,CCOC(=O)CCc1ccccc1,"hansch,c et al. (1995) ",2.73,11,14,0,2,0,0,0,0,0,0,,13,
"1,4-benzodiazepin-2-one,7-fluoro-5-(2-fluorophen",C16H12F2N2O1,002024-34-2,CN1C(=O)CN=C(c3c(F)cccc3)c2c1ccc(F)c2,"hansch,c et al. (1995) ",2.41,16,12,2,1,0,0,2,0,0,0,,21,
2-cyano-3-phenyl et-2-propenoate,C12H11N1O2,002025-40-3,CCOC(=O)C(=Cc1ccccc1)C(#N),"hansch,c et al. (1995) ",2.43,12,11,1,2,0,0,0,0,0,0,,15,
9-octadecenoic acid,C18H34O2,002027-47-6,CCCCCCCCC=CCCCCCCCC(O)=O,sangster (1993) ,7.64,18,34,0,2,0,0,0,0,0,0,,20,
octyl carbamate,C9H19N1O2,002029-64-3,CCCCCCCCOC(N)=O,"hansch,c et al. (1995) ",2.84,9,19,1,2,0,0,0,0,0,0,,12,
(4-dimethylamino-3-methylphenyl) n-methylcarbamate,C11H16N2O2,002032-59-9,CNC(=O)Oc1ccc(N(C)C)c(C)c1,sangster (1993) ,1.9,11,16,2,2,0,0,0,0,0,0,,15,
"(3,5-dimethyl-4-methylsulfanylphenyl) n-methylcarbamate",C11H15N1O2S1,002032-65-7,CNC(=O)Oc1cc(C)c(SC)c(C)c1,"hansch,c et al. (1995) ",2.92,11,15,1,2,1,0,0,0,0,0,,15,
"2,4,5-tribromo-1h-imidazole",C3H1Br3N2,002034-22-2,Brc1[nH]c(Br)c(Br)n1,"hansch,c et al. (1995) ",1.96,3,1,2,0,0,0,0,0,3,0,,8,
"6a,12a-dihydro-6h-(1,3)dioxolo(5,6)benzofuro(3,2-c)chromen-3-ol",C16H12O5,002035-15-6,Oc1ccc2C3Oc4cc5OCOc5cc4C3COc2c1,"arnoldi,a & merlini,l (1990) ",2.61,16,12,0,5,0,0,0,0,0,0,,21,
5-methylpyrimidine,C5H6N2,002036-41-1,Cc1cncnc1,"yamagami,c et al. (1990) ",0.01,5,6,2,0,0,0,0,0,0,0,,7,
3-phenylpropan-1-amine,C9H13N1,002038-57-5,NCCCc1ccccc1,"hansch,c et al. (1995) ",1.83,9,13,1,0,0,0,0,0,0,0,,10,
"propylfluoride, g-phenyl",C9H11F1,002038-62-2,FCCCc1ccccc1,"hansch,c et al. (1995) ",2.95,9,11,0,0,0,0,1,0,0,0,,10,
"2-ethenyl-1,4-dimethylbenzene",C10H12,002039-89-6,Cc1ccc(C)c(C=C)c1,"brack,w et al. (1998) ",4.16,10,12,0,0,0,0,0,0,0,0,,10,
4-methyl-3-nitrophenol,C7H7N1O3,002042-14-0,Cc1ccc(O)cc1[N+]([O-])=O,chemicals inspection and testing institu (1992) ,2.18,7,7,1,3,0,0,0,0,0,0,,11,
"3,3,4,4,5,5,6,6,6-nonafluorohexan-1-ol",C6H5F9O1,002043-47-2,OCCC(F)(F)C(F)(F)C(F)(F)C(F)(F)F,"carmosini,n & lee,sl (2008) ",3.3,6,5,0,1,0,0,9,0,0,0,,16,
methyl 4-phenylbutanoate,C11H14O2,002046-17-5,COC(=O)CCCc1ccccc1,"hansch,c et al. (1995) ",2.77,11,14,0,2,0,0,0,0,0,0,,13,
4-phenylbutanenitrile,C10H11N1,002046-18-6,N#CCCCc1ccccc1,"hansch,c et al. (1995) ",2.21,10,11,1,0,0,0,0,0,0,0,,11,
2-amino-5-phenylpentanoic acid,C11H15N1O2,002046-19-7,NC(CCCc1ccccc1)C(O)=O,"hansch,c et al. (1995) ",-0.36,11,15,1,2,0,0,0,0,0,0,,14,
6-oxoheptanoic acid methyl ester,C8H14O3,002046-21-1,COC(=O)CCCCC(C)=O,"hansch,c et al. (1995) ",0.55,8,14,0,3,0,0,0,0,0,0,,11,
4-cyclopropyl 2-butanone,C7H12O1,002046-23-3,CC(=O)CCC1CC1,"hansch,c et al. (1995) ",1.5,7,12,0,1,0,0,0,0,0,0,,8,
3-methoxypropylbenzene,C10H14O1,002046-33-5,COCCCc1ccccc1,"hansch,c et al. (1995) ",2.7,10,14,0,1,0,0,0,0,0,0,,11,
"n-(2,4-dimethylphenyl)acetamide",C10H13N1O1,002050-43-3,CC(=O)Nc1ccc(C)cc1C,"nakagawa,y et al. (1992) ",1.46,10,13,1,1,0,0,0,0,0,0,,12,
"n-(2,5-dimethylphenyl)acetamide",C10H13N1O1,002050-44-4,CC(=O)Nc1cc(C)ccc1C,"nakagawa,y et al. (1992) ",1.47,10,13,1,1,0,0,0,0,0,0,,12,
"n-(3,5-dimethylphenyl)acetamide",C10H13N1O1,002050-45-5,CC(=O)Nc1cc(C)cc(C)c1,"nakagawa,y et al. (1992) ",2.17,10,13,1,1,0,0,0,0,0,0,,12,
"3,3'-dichlorobiphenyl",C12H8Cl2,002050-67-1,Clc1cccc(c1)c2cccc(Cl)c2,sangster (1993) ,5.27,12,8,0,0,0,0,0,2,0,0,,14,
"4,4'-dichlorobiphenyl",C12H8Cl2,002050-68-2,Clc1ccc(cc1)c2ccc(Cl)cc2,sangster (1994) ,5.23,12,8,0,0,0,0,0,2,0,0,,14,
"1,2-dichloronaphthalene",C10H6Cl2,002050-69-3,Clc1ccc2ccccc2c1Cl,"hansch,c et al. (1995) ",4.42,10,6,0,0,0,0,0,2,0,0,,12,
"2,8-dichloronaphthalene",C10H6Cl2,not,Clc1ccc2cccc(Cl)c2c1,"hansch,c & leo,aj (1985) ",4.42,10,6,0,0,0,0,0,2,0,0,,12,
"2,3-dichloronaphthalene",C10H6Cl2,002050-75-1,Clc1cc2ccccc2cc1Cl,"hansch,c et al. (1995) ",4.42,10,6,0,0,0,0,0,2,0,0,,12,
"2,4-dichloro-1-naphthol",C10H6Cl2O1,002050-76-2,Oc1c(Cl)cc(Cl)c2ccccc12,chemicals inspection and testing institu (1992) ,4.23,10,6,0,1,0,0,0,2,0,0,,13,
n-(2-acetamidophenyl)acetamide,C10H12N2O2,002050-85-3,CC(=O)Nc1ccccc1NC(C)=O,pomona (1987) ,-0.03,10,12,2,2,0,0,0,0,0,0,,14,
decachlorobiphenyl,C12Cl10,002051-24-3,Clc1c(Cl)c(Cl)c(c(Cl)c1Cl)c2c(Cl)c(Cl)c(Cl)c(Cl)c2Cl,"debruijn,j et al. (1989) ",8.27,12,0,0,0,0,0,0,10,0,0,,22,
aroclor 1221,C12H9Cl1,011104-28-2,c1(c2ccccc2)ccccc1Cl,"hansch, c et al. (1995); avg ",4.65,12,9,0,0,0,0,0,1,0,0,,13,
3-chlorobiphenyl,C12H9Cl1,002051-61-8,Clc1cccc(c1)c2ccccc2,"hansch,c et al. (1995) ",4.58,12,9,0,0,0,0,0,1,0,0,,13,
4-chlorobiphenyl,C12H9Cl1,002051-62-9,Clc1ccc(cc1)c2ccccc2,"hansch,c et al. (1995) ",4.61,12,9,0,0,0,0,0,1,0,0,,13,
4-oxo-4-phenylbutanoic acid,C10H10O3,002051-95-8,OC(=O)CCC(=O)c1ccccc1,sangster (1993) ,1.3,10,10,0,3,0,0,0,0,0,0,,13,
1-bromo-2-phenylbenzene,C12H9Br1,002052-07-5,Brc1ccccc1c2ccccc2,"doucette,wj & andren,aw (1987) ",4.59,12,9,0,0,0,0,0,0,1,0,,13,
butyl 2-hydroxybenzoate,C11H14O3,002052-14-4,CCCCOC(=O)c1ccccc1O,"korenman,yi & danilov,vn (1990) ",4.63,11,14,0,3,0,0,0,0,0,0,,14,
n-ethyl-n-(pyridin-3-ylmethyl)ethanamine,C10H16N2,002055-14-3,CCN(CC)Cc1cccnc1,"hansch,c et al. (1995) ",1.01,10,16,2,0,0,0,0,0,0,0,,12,
"n,n-dimethyl-1-pyridin-3-ylmethanamine",C8H12N2,002055-21-2,CN(C)Cc1cccnc1,"hansch,c et al. (1995) ",0.49,8,12,2,0,0,0,0,0,0,0,,10,
"1,3-diazinane-2-thione",C4H8N2S1,002055-46-1,S=C1NCCCN1,"hansch,c et al. (1995) ",-0.68,4,8,2,0,1,0,0,0,0,0,,7,
"1-methylindole-2,3-dione",C9H7N1O2,002058-74-4,CN1C(=O)C(=O)c2ccccc12,"hansch,c et al. (1995) ",0.58,9,7,1,2,0,0,0,0,0,0,,12,
1-iodo-4-isothiocyanatobenzene,C7H4I1N1S1,002059-76-9,Ic1ccc(cc1)N=C=S,"augustin,s et al. (1987) ",4.22,7,4,1,0,1,0,0,0,0,1,,10,
"3,11-tridecadiene-5,7,9-triyn-1-ol, 2-chloro-",C13H11Cl1O1,002060-58-4,CC=CC#CC#CC#CC=CC(Cl)CO,"mclachlan,d et al. (1986) ",3.91,13,11,0,1,0,0,0,1,0,0,,15,
3-[1-[4-(4-fluorophenyl)-4-oxobutyl]piperidin-4-yl]-1h-benzimidazol-2-one,C22H24F1N3O2,002062-84-2,Fc1ccc(cc1)C(=O)CCCN2CCC(CC2)N3C(=O)Nc4ccccc34,"hansch,c et al. (1995) ",3.91,22,24,3,2,0,0,1,0,0,0,,28,
methyl 2-(phenoxy)acetate,C9H10O3,002065-23-8,COC(=O)COc1ccccc1,"hansch,c et al. (1995) ",1.41,9,10,0,3,0,0,0,0,0,0,,12,
"2-bromonaphthalene-1,4-dione",C10H5Br1O2,002065-37-4,BrC1=CC(=O)c2ccccc2C1=O,"hansch,c et al. (1995) ",2.44,10,5,0,2,0,0,0,0,1,0,,13,
1-fluoro-n-phenylmethanesulfonamide,C7H8F1N1O2S1,002070-61-3,FC[S](=O)(=O)Nc1ccccc1,"hansch,c et al. (1995) ",1.35,7,8,1,2,1,0,1,0,0,0,,12,
"2,6-dinitro-n-propyl-4-(trifluoromethyl)aniline",C10H10F3N3O4,002077-99-8,CCCNc1c(cc(cc1[N+]([O-])=O)C(F)(F)F)[N+]([O-])=O,"hansch,c & leo,aj (1985) ",3.65,10,10,3,4,0,0,3,0,0,0,,20,
"2,6-di(propan-2-yl)phenol",C12H18O1,002078-54-8,CC(C)c1cccc(C(C)C)c1O,"hansch,c et al. (1995) ",3.79,12,18,0,1,0,0,0,0,0,0,,13,
2-(3-propylphenoxy)acetic acid,C11H14O3,002084-11-9,CCCc1cccc(OCC(O)=O)c1,"hansch,c et al. (1995) ",2.71,11,14,0,3,0,0,0,0,0,0,,14,
3-(carboxymethyl)benzoic acid,C9H8O4,002084-13-1,OC(=O)Cc1cccc(c1)C(O)=O,"hansch,c et al. (1995) ",1.14,9,8,0,4,0,0,0,0,0,0,,13,
2-(3-methoxyphenoxy)acetic acid,C9H10O4,002088-24-6,COc1cccc(OCC(O)=O)c1,"hansch,c et al. (1995) ",1.38,9,10,0,4,0,0,0,0,0,0,,13,
"10h-phenothiazine-10-propanamine,2-chloro-",C15H15Cl1N2S1,002095-17-2,NCCCN1c2ccccc2Sc3ccc(Cl)cc13,"whelpton,r (1989) ",4.47,15,15,2,0,1,0,0,1,0,0,,19,
"1,4-dimethoxy-2-chlorobenzene",C8H9Cl1O2,002100-42-7,COc1ccc(OC)c(Cl)c1,"nakagawa,y et al. (1992) ",2.69,8,9,0,2,0,0,0,1,0,0,,11,
ethoxy-(4-nitrophenoxy)-phenyl-sulfanylidenephosphorane,C14H14N1O4P1S1,002104-64-5,CCO[P](=S)(Oc1ccc(cc1)[N+]([O-])=O)c2ccccc2,chemicals inspection and testing institu (1992) ,4.78,14,14,1,4,1,1,0,0,0,0,,21,
bromophos,C8H8Br1Cl2O3P1S1,002104-96-3,CO[P](=S)(OC)Oc1cc(Cl)c(Br)cc1Cl,"hansch,c et al. (1995) ",5.21,8,8,0,3,1,1,0,2,1,0,,16,
n-(2-phenylphenyl)acetamide,C14H13N1O1,002113-47-5,CC(=O)Nc1ccccc1c2ccccc2,"nakagawa,y et al. (1992) ",2.02,14,13,1,1,0,0,0,0,0,0,,16,
1-bromo-3-phenylbenzene,C12H9Br1,002113-57-7,Brc1cccc(c1)c2ccccc2,"doucette,wj & andren,aw (1987) ",4.85,12,9,0,0,0,0,0,0,1,0,,13,
2-methylpropyl carbamate,C5H11N1O2,002114-15-0,CC(C)COC(N)=O,"hansch,c et al. (1995) ",0.65,5,11,1,2,0,0,0,0,0,0,,8,
hexyl carbamate,C7H15N1O2,002114-20-7,CCCCCCOC(N)=O,"hansch,c et al. (1995) ",1.85,7,15,1,2,0,0,0,0,0,0,,10,
4-(phenylmethyl)pyridine,C12H11N1,002116-65-6,C(c1ccccc1)c2ccncc2,"hansch,c et al. (1995) ",2.62,12,11,1,0,0,0,0,0,0,0,,13,
4-amino-3-iodobenzoic acid,C7H6I1N1O2,002122-63-6,Nc1ccc(cc1I)C(O)=O,sangster (1994) ,2.36,7,6,1,2,0,0,0,0,0,1,,11,
1-(4-dimethylaminophenyl)ethanone,C10H13N1O1,002124-31-4,CN(C)c1ccc(cc1)C(C)=O,"hansch,c et al. (1995) ",2.1,10,13,1,1,0,0,0,0,0,0,,12,
"1,4,5-trimethylnaphthalene",C13H14,002131-41-1,Cc1ccc(C)c2c(C)cccc12,"miller,mm et al. (1985) ",4.9,13,14,0,0,0,0,0,0,0,0,,13,
"benzene, 1-chloro-4-isothiocyanato-",C7H4Cl1N1S1,002131-55-7,Clc1ccc(cc1)N=C=S,"augustin,s et al. (1987) ",3.91,7,4,1,0,1,0,0,1,0,0,,10,
1-bromo-3-isothiocyanatobenzene,C7H4Br1N1S1,002131-59-1,Brc1cccc(c1)N=C=S,pomona (1987) ,4.12,7,4,1,0,1,0,0,0,1,0,,10,
4-isothiocyanatophenol,C7H5N1O1S1,002131-60-4,Oc1ccc(cc1)N=C=S,"hansch,c et al. (1995) ",2.74,7,5,1,1,1,0,0,0,0,0,,10,
1-isothiocyanato-4-nitrobenzene,C7H4N2O2S1,002131-61-5,[O-][N+](=O)c1ccc(cc1)N=C=S,"hansch,c et al. (1995) ",3.62,7,4,2,2,1,0,0,0,0,0,,12,
4-isothiocyanatobenzoic acid,C8H5N1O2S1,002131-62-6,OC(=O)c1ccc(cc1)N=C=S,"hansch,c et al. (1995) ",3.52,8,5,1,2,1,0,0,0,0,0,,12,
"4-isothiocyanato-n,n-dimethylaniline",C9H10N2S1,002131-64-8,CN(C)c1ccc(cc1)N=C=S,"augustin,s et al. (1987) ",3.96,9,10,2,0,1,0,0,0,0,0,,12,
"6,9-difluoro-11,17-dihydroxy-17-(2-hydroxyacetyl)-10,13,16-trimethyl-6,7,8,11,12,14,15,16-octahydrocyclopenta[a]phenanthren-3-one",C22H28F2O5,002135-17-3,CC1CC2C3CC(F)C4=CC(=O)C=CC4(C)C3(F)C(O)CC2(C)C1(O)C(=O)CO,"hansch,c et al. (1995) ",1.94,22,28,0,5,0,0,2,0,0,0,,29,
"2,2',3,3',5,5',6,6'-octachlorobiphenyl",C12H2Cl8,002136-99-4,Clc1cc(Cl)c(Cl)c(c1Cl)c2c(Cl)c(Cl)cc(Cl)c2Cl,"debruijn,j et al. (1989) ",7.73,12,2,0,0,0,0,0,8,0,0,,20,
"4-amino-1-[3,4-dihydroxy-5-(hydroxymethyl)oxolan-2-yl]-5-methylpyrimidin-2-one",C10H15N3O5,002140-61-6,CC1=CN(C2OC(CO)C(O)C2O)C(=O)N=C1N,"hansch,c et al. (1995) ",-2.01,10,15,3,5,0,0,0,0,0,0,,18,
1-(3-bromophenyl)ethanone,C8H7Br1O1,002142-63-4,CC(=O)c1cccc(Br)c1,"dunn,wj et al. (1983) ",2.47,8,7,0,1,0,0,0,0,1,0,,10,
o-chloroacetophenone,C8H7Cl1O1,002142-68-9,CC(=O)c1ccccc1Cl,"hansch,c et al. (1995) ",2.09,8,7,0,1,0,0,0,1,0,0,,10,
1-(2-bromophenyl)ethanone,C8H7Br1O1,002142-69-0,CC(=O)c1ccccc1Br,sangster (1993) ,2.28,8,7,0,1,0,0,0,0,1,0,,10,
"3-buten-2-one,4-(2-fluorophenyl)-",C10H9F1O1,002143-80-8,CC(=O)C=Cc1ccccc1F,"yamagami,c et al. (1998) ",2.34,10,9,0,1,0,0,1,0,0,0,,12,
"2,5-dimethyloxolane",C6H12O1,002390-94-5,CC1CCC(C)O1,"funasaki,n et al. (1985) ",1.34,6,12,0,1,0,0,0,0,0,0,,7,
me-n-(m-chlorophenyl)carbamate,C8H8Cl1N1O2,002150-88-1,Clc1cccc(NC(=O)OC)c1,"hansch,c et al. (1995) ",2.58,8,8,1,2,0,0,0,1,0,0,,12,
"n-(3,4-dichlorophenyl)acetamide",C8H7Cl2N1O1,002150-93-8,CC(=O)Nc1ccc(Cl)c(Cl)c1,"nakagawa,y et al. (1992) ",3,8,7,1,1,0,0,0,2,0,0,,12,
"butanamide, n-(3,4-dichlorophenyl)-",C10H11Cl2N1O1,002150-95-0,CCCC(=O)Nc1ccc(Cl)c(Cl)c1,pomona (1987) ,3.77,10,11,1,1,0,0,0,2,0,0,,14,
"[9-fluoro-11-hydroxy-17-(2-hydroxyacetyl)-10,13,16-trimethyl-3-oxo-6,7,8,11,12,14,15,16-octahydrocyclopenta[a]phenanthren-17-yl] pentanoate",C27H37F1O6,002152-44-5,CCCCC(=O)OC1(C(C)CC2C3CCC4=CC(=O)C=CC4(C)C3(F)C(O)CC12C)C(=O)CO,"hansch,c et al. (1995) ",3.6,27,37,0,6,0,0,1,0,0,0,,34,
4-hydroxy dichloroacetanilide,C8H7Cl2N1O2,002153-10-8,c1c(NC(=O)C(Cl)Cl)ccc(O)c1,"dutta,h et al. (1988) ",1.6,8,7,1,2,0,0,0,2,0,0,,13,
"2-(4-phenylphenyl)indene-1,3-dione",C21H14O2,002156-14-1,O=C1C(c2ccc(cc2)c3ccccc3)C(=O)c4ccccc14,sangster (1993) ,4.79,21,14,0,2,0,0,0,0,0,0,,23,
azodrin,C7H14N1O5P1,006923-22-4,CNC(=O)\C=C(/C)O[P](=O)(OC)OC,"hansch,c et al. (1995) ",-0.2,7,14,1,5,0,1,0,0,0,0,,14,
"2-methylpropane-1,3-diol",C4H10O2,002163-42-0,CC(CO)CO,hpv robust summary ,0.24,4,10,0,2,0,0,0,0,0,0,,6,
"1,1-dimethyl-3-[3-(trifluoromethyl)phenyl]urea",C10H11F3N2O1,002164-17-2,CN(C)C(=O)Nc1cccc(c1)C(F)(F)F,"hansch,c et al. (1995) ",2.42,10,11,2,1,0,0,3,0,0,0,,16,
"[4-acetyloxy-2-(acetyloxymethyl)-5-(3,5-dioxo-1,2,4-triazin-2-yl)oxolan-3-yl] acetate",C14H17N3O9,002169-64-4,CC(=O)OCC1OC(C(OC(C)=O)C1OC(C)=O)N2N=CC(=O)NC2=O,"hansch,c et al. (1995) ",-0.2,14,17,3,9,0,0,0,0,0,0,,26,
"2-[3,5-dimethoxy-4-(phenylmethoxy)phenyl]ethanamine",C17H21N1O3,002176-16-1,COc1cc(CCN)cc(OC)c1OCc2ccccc2,sangster (1993) ,2.4,17,21,1,3,0,0,0,0,0,0,,21,
"2,3,4,5,6-pentachlorpyridine",C5Cl5N1,002176-62-7,n1c(Cl)c(Cl)c(Cl)c(Cl)c1Cl,"hansch,c et al. (1995) ",3.53,5,0,1,0,0,0,0,5,0,0,,11,
"1-butyl-n-(2,6-dimethylphenyl)piperidine-2-carboxamide",C18H28N2O1,002180-92-9,CCCCN1CCCCC1C(=O)Nc2c(C)cccc2C,"hansch,c et al. (1995) ",3.41,18,28,2,1,0,0,0,0,0,0,,21,
"2,4-dibromo-6-(hydroxymethyl)phenol",C7H6Br2O2,002183-54-2,OCc1cc(Br)cc(Br)c1O,"takagi,t et al. (1992) ",2.72,7,6,0,2,0,0,0,0,2,0,,11,
octylbenzene,C14H22,002189-60-8,CCCCCCCCc1ccccc1,sangster (1993) ,6.3,14,22,0,0,0,0,0,0,0,0,,14,
methyl n-(3-nitrophenyl)carbamate,C8H8N2O4,002189-61-9,COC(=O)Nc1cccc(c1)[N+]([O-])=O,"takahashi,k et al. (1988) ",2,8,8,2,4,0,0,0,0,0,0,,14,
"n-(2,6-dimethylphenyl)acetamide",C10H13N1O1,002198-53-0,CC(=O)Nc1c(C)cccc1C,"nakagawa,y et al. (1992) ",1.07,10,13,1,1,0,0,0,0,0,0,,12,
"n-(3,4-dimethylphenyl)acetamide",C10H13N1O1,002198-54-1,CC(=O)Nc1ccc(C)c(C)c1,"nakagawa,y et al. (1992) ",2.1,10,13,1,1,0,0,0,0,0,0,,12,
"2,7-dichloronaphthalene",C10H6Cl2,002198-77-8,Clc1ccc2ccc(Cl)cc2c1,"opperhuizen,a et al. (1985) ",4.81,10,6,0,0,0,0,0,2,0,0,,12,
ethyl 1h-pyrrole-2-carboxylate,C7H9N1O2,002199-43-1,CCOC(=O)c1[nH]ccc1,"yamagami,c et al. (1994) ",1.73,7,9,1,2,0,0,0,0,0,0,,10,