Names,Formula,CAS No,SMILES,Reference,Exp logp,C,H,N,O,S,P,F,Cl,Br,I,,,
"6a-hydroxy-6,9a-dimethyl-3-methylidene-4,5,6,9b-tetrahydro-3ah-azuleno[7,8-d]furan-2,9-dione",C15H18O4,000508-59-8,CC1CCC2C(OC(=O)C2=C)C3(C)C(=O)C=CC13O,"hansch,c et al. (1995) ",0.77,15,18,0,4,0,0,0,0,0,0,,19,
cymarin,C30H44O9,000508-77-0,CO[C@H]1C[C@@H](O[C@H](C)[C@H]1O)O[C@H]2CC[C@]3(C=O)[C@H]4CC[C@]5(C)[C@H](CC[C@]5(O)[C@@H]4CC[C@]3(O)C2)C6=CC(=O)OC6,sangster (1993) ,0.64,30,44,0,9,0,0,0,0,0,0,,39,
"[6-dimethylamino-4,4-di(phenyl)heptan-3-yl] acetate",C23H31N1O2,000509-74-0,CCC(OC(C)=O)C(CC(C)N(C)C)(c1ccccc1)c2ccccc2,"hansch,c et al. (1995) ",4.27,23,31,1,2,0,0,0,0,0,0,,26,
"5-(1-cycloheptenyl)-5-ethyl-1,3-diazinane-2,4,6-trione",C13H18N2O3,000509-86-4,CCC1(C(=O)NC(=O)NC1=O)C2=CCCCCC2,"hansch,c et al. (1995) ",2.03,13,18,2,3,0,0,0,0,0,0,,18,
"6,9a-dimethyl-3-methylidene-3a,4,5,6,6a,9b-hexahydroazuleno[7,8-d]furan-2,9-dione",C15H18O3,000509-93-3,CC1CCC2C(OC(=O)C2=C)C3(C)C1C=CC3=O,"hansch,c et al. (1995) ",1.03,15,18,0,3,0,0,0,0,0,0,,18,
chlorobenzilate,C16H14Cl2O3,000510-15-6,CCOC(=O)C(O)(c1ccc(Cl)cc1)c2ccc(Cl)cc2,chemicals inspection and testing institu (1992) ,4.74,16,14,0,3,0,0,0,2,0,0,,21,
hydroxy-trimethoxyphosphanium,C3H9O4P1,000512-56-1,CO[P+](O)(OC)OC,"hansch,c et al. (1995) ",-0.65,3,9,0,4,0,1,0,0,0,0,,8,
tripropyl phosphate,C9H21O4P1,000513-08-6,CCCO[P](=O)(OCCC)OCCC,"hansch,c et al. (1995) ",1.87,9,21,0,4,0,1,0,0,0,0,,14,
2-methylbut-2-ene,C5H10,000513-35-9,CC=C(C)C,"abraham,mh et al. (1994) ",2.67,5,10,0,0,0,0,0,0,0,0,,5,
butan-2-amine,C4H11N1,013952-84-6,CCC(C)N,"hansch,c et al. (1995) ",0.74,4,11,1,0,0,0,0,0,0,0,,5,
6982-25-8,C4H10O2,000513-85-9,CC(O)C(C)O,"hansch,c et al. (1995) ",-0.92,4,10,0,2,0,0,0,0,0,0,,6,
"17-hydroxy-13,17-dimethyl-1,2,6,7,8,9,10,11,12,14,15,16-dodecahydrocyclopenta[a]phenanthren-3-one",C19H28O2,000514-61-4,CC1(O)CCC2C3CCC4=CC(=O)CCC4C3CCC12C,"hansch,c et al. (1995) ",2.99,19,28,0,2,0,0,0,0,0,0,,21,
1-(6-bicyclo[2.2.1]hept-2-enyl)-1-phenyl-3-piperidin-1-ylpropan-1-ol,C21H29N1O1,000514-65-8,OC(CCN1CCCCC1)(C2CC3CC2C=C3)c4ccccc4,sangster (1993) ,4.25,21,29,1,1,0,0,0,0,0,0,,23,
"(7,7-dimethyl-4-bicyclo[3.1.1]hept-3-enyl)methanol",C10H16O1,000515-00-4,CC1(C)C2CC=C(CO)C1C2,"griffin,s et al. (1999) ",3.22,10,16,0,1,0,0,0,0,0,0,,11,
2-hydroxy-2-phenyl-propanoic acid,C9H10O3,000515-30-0,CC(O)(C(O)=O)c1ccccc1,"kuchar,m et al. (1985) ",0.8,9,10,0,3,0,0,0,0,0,0,,12,
"4-amino-n-(2,6-dimethylpyrimidin-4-yl)benzenesulfonamide",C12H14N4O2S1,000515-64-0,Cc1cc(N[S](=O)(=O)c2ccc(N)cc2)nc(C)n1,"hansch,c et al. (1995) ",-0.33,12,14,4,2,1,0,0,0,0,0,,19,
ethyl trichloroacetate,C4H5Cl3O2,000515-84-4,CCOC(=O)C(Cl)(Cl)Cl,"hansch,c et al. (1995) ",2.39,4,5,0,2,0,0,0,3,0,0,,9,
"benzene-1,2,3,4,5,6-hexacarboxylic acid",C12H6O12,000517-60-2,OC(=O)c1c(C(O)=O)c(C(O)=O)c(C(O)=O)c(C(O)=O)c1C(O)=O,"avdeef,a (1993) ",1.5,12,6,0,12,0,0,0,0,0,0,,24,
"n,n-di(phenyl)acetamide",C14H13N1O1,000519-87-9,CC(=O)N(c1ccccc1)c2ccccc2,"hansch,c et al. (1995) ",2.02,14,13,1,1,0,0,0,0,0,0,,16,
"2-phenylisoindole-1,3-dione",C14H9N1O2,000520-03-6,O=C1N(c2ccccc2)C(=O)c3ccccc13,"hansch,c et al. (1995) ",2.4,14,9,1,2,0,0,0,0,0,0,,17,
diosmine,C28H32O15,000520-27-4,CC1C(C(C(C(O1)OCC2C(C(C(C(O2)OC3=CC(=C4C(=C3)OC(=CC4=O)C5=CC(=C(C=C5)OC)O)O)O)O)O)O)O)O,"perrissoud,d & testa,b (1986) ",0.14,28,32,0,15,0,0,0,0,0,0,,43,
"5,7-dihydroxy-2-(3-hydroxy-4-methoxyphenyl)chroman-4-one",C16H14O6,000520-33-2,COc1ccc(cc1O)C2CC(=O)c3c(O)cc(O)cc3O2,"perrissoud,d & testa,b (1986) ",2.6,16,14,0,6,0,0,0,0,0,0,,22,
"5,7-dihydroxy-2-(3-hydroxy-4-methoxyphenyl)chromen-4-one",C16H12O6,000520-34-3,COc1ccc(cc1O)C2=CC(=O)c3c(O)cc(O)cc3O2,"perrissoud,d & testa,b (1986) ",3.1,16,12,0,6,0,0,0,0,0,0,,22,
"5,7-dihydroxy-2-(4-hydroxyphenyl)chromen-4-one",C15H10O5,000520-36-5,Oc1ccc(cc1)C2=CC(=O)c3c(O)cc(O)cc3O2,"perrissoud,d & testa,b (1986) ",3.02,15,10,0,5,0,0,0,0,0,0,,20,
"17-hydroxy-10,13-dimethyl-1,2,4,5,6,7,8,9,11,12,14,15,16,17-tetradecahydrocyclopenta[a]phenanthren-3-one",C19H30O2,000521-18-6,CC12CCC3C(CCC4CC(=O)CCC34C)C1CCC2O,"hansch,c et al. (1995) ",3.55,19,30,0,2,0,0,0,0,0,0,,21,
"n,n-diethyl-1-phenothiazin-10-ylpropan-2-amine",C19H24N2S1,000522-00-9,CCN(CC)C(C)CN1c2ccccc2Sc3ccccc13,"hansch,c et al. (1995) ",4.77,19,24,2,0,1,0,0,0,0,0,,22,
"n,n-dimethyl-2-phenothiazin-10-ylethanamine",C16H18N2S1,000522-24-7,CN(C)CCN1c2ccccc2Sc3ccccc13,"hansch,c et al. (1995) ",4.2,16,18,2,0,1,0,0,0,0,0,,19,
"furo[2,3-h]chromen-2-one",C11H6O3,000523-50-2,O=C1Oc2c(C=C1)ccc3occc23,sangster (1993) ,2.08,11,6,0,3,0,0,0,0,0,0,,14,
1-naphthalen-1-yloxy-3-(propan-2-ylamino)propan-2-ol,C16H21N1O2,000525-66-6,CC(C)NCC(O)COc1cccc2ccccc12,"avdeef,a (1997) ",3.48,16,21,1,2,0,0,0,0,0,0,,19,
"3-(1-methyl-4,5-dihydropyrrol-2-yl)pyridine",C10H12N2,000525-74-6,CN1CCC=C1c2cccnc2,"hansch,c et al. (1995) ",1.13,10,12,2,0,0,0,0,0,0,0,,12,
2-phenylchromen-4-one,C15H10O2,000525-82-6,O=C1C=C(Oc2ccccc12)c3ccccc3,"hansch,c et al. (1995) ",3.56,15,10,0,2,0,0,0,0,0,0,,17,
"3,3-dimethyl-6-(octanoylamino)-7-oxo-4-thia-1-azabicyclo[3.2.0]heptane-2-carboxylic acid",C16H26N2O4S1,000525-97-3,CCCCCCCC(=O)NC1C2SC(C)(C)C(N2C1=O)C(O)=O,sangster (1994) ,3.32,16,26,2,4,1,0,0,0,0,0,,23,
4-amino-n-(2-phenylpyrazol-3-yl)benzenesulfonamide,C15H14N4O2S1,000526-08-9,Nc1ccc(cc1)[S](=O)(=O)Nc2ccnn2c3ccccc3,"hansch,c et al. (1995) ",1.52,15,14,4,2,1,0,0,0,0,0,,22,
"2,5-bis(aziridin-1-yl)cyclohexa-2,5-diene-1,4-dione",C10H10N2O2,not,O=C1C=C(N2CC2)C(=O)C=C1N3CC3,"hansch,c et al. (1995) ",0.18,10,10,2,2,0,0,0,0,0,0,,14,
"1,2,3-trimethylbenzene",C9H12,000526-73-8,Cc1cccc(C)c1C,"hansch,c et al. (1995) ",3.66,9,12,0,0,0,0,0,0,0,0,,9,
"2,3-dimethylphenol",C8H10O1,000526-75-0,Cc1cccc(O)c1C,daylight (1999) ,2.48,8,10,0,1,0,0,0,0,0,0,,9,
"2,3-dimethylcyclohexa-2,5-diene-1,4-dione",C8H8O2,000526-86-3,CC1=C(C)C(=O)C=CC1=O,"rich,pr (1990) ",1.23,8,8,0,2,0,0,0,0,0,0,,10,
"2,3,5,6-tetramethylcyclohexa-2,5-diene-1,4-dione",C10H12O2,000527-17-3,CC1=C(C)C(=O)C(=C(C)C1=O)C,"hansch,c et al. (1995) ",2.23,10,12,0,2,0,0,0,0,0,0,,12,
pentachloroaniline,C6H2Cl5N1,000527-20-8,ClN(Cl)c1ccc(Cl)c(Cl)c1Cl,sangster (1994) ,4.82,6,2,1,0,0,0,0,5,0,0,,12,
"1,2,3,5-tetramethylbenzene",C10H14,000527-53-7,Cc1cc(C)c(C)c(C)c1,sangster (1994) ,4.1,10,14,0,0,0,0,0,0,0,0,,10,
"2,4,6-trimethylphenol",C9H12O1,000527-60-6,Cc1cc(C)c(O)c(C)c1,sangster (1993) ,2.73,9,12,0,1,0,0,0,0,0,0,,10,
"2,6-dimethylcyclohexa-2,5-diene-1,4-dione",C8H8O2,000527-61-7,CC1=CC(=O)C=C(C)C1=O,"hansch,c et al. (1995) ",1.22,8,8,0,2,0,0,0,0,0,0,,10,
thiophene-2-carboxylic acid,C5H4O2S1,000527-72-0,OC(=O)c1sccc1,"hansch,c et al. (1995) ",1.57,5,4,0,2,1,0,0,0,0,0,,8,
2-nitro-1h-imidazole,C3H3N3O2,000527-73-1,[O-][N+](=O)c1[nH]ccn1,"hansch,c et al. (1995) ",0.15,3,3,3,2,0,0,0,0,0,0,,8,
"erythromycin, 12-deoxy-",C37H67N1O12,000527-75-3,CC[C@H]1OC(=O)[C@H](C)[C@@H](OC2CC(C)(OC)C(O)C(C)O2)C(C)[C@@H](OC3OC(C)CC(C3O)N(C)C)[C@](C)(O)C[C@@H](C)C(=O)[C@H](C)[C@@H](O)[C@H]1C,"hansch,c et al. (1995) ",3.12,37,67,1,12,0,0,0,0,0,0,,50,
1-methyl-2-propan-2-ylbenzene,C10H14,000527-84-4,CC(C)c1ccccc1C,"sherblom,pm & eganhouse,rp (1988) ",4.38,10,14,0,0,0,0,0,0,0,0,,10,
2-methylbenzamide,C8H9N1O1,000527-85-5,Cc1ccccc1C(N)=O,"nakagawa,y et al. (1992) ",0.76,8,9,1,1,0,0,0,0,0,0,,10,
dichloromethotrexate,C20H20Cl2N8O5,000528-74-5,CN(Cc1cnc2nc(N)nc(N)c2n1)c3c(Cl)cc(cc3Cl)C(=O)NC(CCC(O)=O)C(O)=O,"hansch,c et al. (1995) ",-0.1,20,20,8,5,0,0,0,2,0,0,,35,
2-methylbenzonitrile,C8H7N1,000529-19-1,Cc1ccccc1C#N,"hansch,c et al. (1995) ",2.21,8,7,1,0,0,0,0,0,0,0,,9,
2-methylbenzaldehyde,C8H8O1,000529-20-4,Cc1ccccc1C=O,sangster (1994) ,2.26,8,8,0,1,0,0,0,0,0,0,,9,
"5,6,7,8-tetrahydronaphthalen-1-ol",C10H12O1,000529-35-1,Oc1cccc2CCCCc12,sangster (1993) ,2.95,10,12,0,1,0,0,0,0,0,0,,11,
3-hydroxy-2-phenylpropanoic acid,C9H10O3,000529-64-6,OCC(C(O)=O)c1ccccc1,"hansch,c et al. (1995) ",0.77,9,10,0,3,0,0,0,0,0,0,,12,
"1,1-di(phenyl)hydrazine",C12H12N2,000530-50-7,NN(c1ccccc1)c2ccccc2,"hansch,c et al. (1995) ",2.8,12,12,2,0,0,0,0,0,0,0,,14,
"2,3-dihydro-1h-pyrrolo[2,1-b]quinazolin-9-one",C11H10N2O1,000530-53-0,O=C1N2CCCC2=Nc3ccccc13,sangster (1993) ,1.07,11,10,2,1,0,0,0,0,0,0,,14,
"2,6-dimethoxycyclohexa-2,5-diene-1,4-dione",C8H8O4,000530-55-2,COC1=CC(=O)C=C(OC)C1=O,"huang,jx et al. (1985) ",-0.06,8,8,0,4,0,0,0,0,0,0,,12,
"4-hydroxy-3,5-dimethoxybenzoic acid",C9H10O5,000530-57-4,COc1cc(cc(OC)c1O)C(O)=O,"hansch,c et al. (1995) ",1.04,9,10,0,5,0,0,0,0,0,0,,14,
2-[[3-(trifluoromethyl)phenyl]amino]benzoic acid,C14H10F3N1O2,000530-78-9,OC(=O)c1ccccc1Nc2cccc(c2)C(F)(F)F,"hansch,c et al. (1995) ",5.25,14,10,1,2,0,0,3,0,0,0,,20,
[2-hydroxy-3-(2-methoxyphenoxy)propyl] carbamate,C11H15N1O5,000532-03-6,COc1ccccc1OCC(O)COC(N)=O,chemicals inspection and testing institu (1992) ,0.61,11,15,1,5,0,0,0,0,0,0,,17,
5-(4-methoxyphenyl)dithiole-3-thione,C10H8O1S3,000532-11-6,COc1ccc(cc1)C2=CC(=S)SS2,"bona,m et al. (1995) ",3.82,10,8,0,1,3,0,0,0,0,0,,14,
2-chloroacetanilide,C8H8Cl1N1O1,000533-17-5,ClCC(=O)Nc1ccccc1,"hansch,c et al. (1995) ",1.28,8,8,1,1,0,0,0,1,0,0,,11,
(2-methylphenyl) acetate,C9H10O2,000533-18-6,CC(=O)Oc1ccccc1C,"hansch,c et al. (1995) ",1.93,9,10,0,2,0,0,0,0,0,0,,11,
clomethiazole,C6H8Cl1N1S1,000533-45-9,Cc1ncsc1CCCl,sangster (1993) ,2.12,6,8,1,0,1,0,0,1,0,0,,9,
2-iodophenol,C6H5I1O1,000533-58-4,Oc1ccccc1I,"hansch,c et al. (1995) ",2.65,6,5,0,1,0,0,0,0,0,1,,8,
"3,5-dimethyl-1,3,5-thiadiazinane-2-thione",C5H10N2S2,000533-74-4,CN1CSC(=S)N(C)C1,"tomlin,c (2003) ",0.63,5,10,2,0,2,0,0,0,0,0,,9,
"1,3-dimethylthiourea",C3H8N2S1,000534-13-4,CNC(=S)NC,"hansch,c et al. (1995) ",-0.24,3,8,2,0,1,0,0,0,0,0,,6,
2-methylfuran,C5H6O1,000534-22-5,Cc1occc1,"hansch,c et al. (1995) ",1.85,5,6,0,1,0,0,0,0,0,0,,6,
dithiole-3-thione,C3H2S3,000534-25-8,S=C1SSC=C1,"bona,m et al. (1995) ",1.58,3,2,0,0,3,0,0,0,0,0,,6,
"2-methyl-4,5-dihydro-1h-imidazole",C4H8N2,000534-26-9,CC1=NCCN1,"hansch,c et al. (1995) ",0.52,4,8,2,0,0,0,0,0,0,0,,6,
"2-methyl-4,6-dinitrophenol",C7H6N2O5,000534-52-1,Cc1cc(cc(c1O)[N+]([O-])=O)[N+]([O-])=O,"hansch,c et al. (1995) ",2.13,7,6,2,5,0,0,0,0,0,0,,14,
"1-(4-hydroxy-3-methoxyphenyl)ethane-1,2-diol",C9H12O4,000534-82-7,COc1cc(ccc1O)C(O)CO,"hansch,c et al. (1995) ",-0.58,9,12,0,4,0,0,0,0,0,0,,13,
piperidine-2-carboxylic acid,C6H11N1O2,000535-75-1,OC(=O)C1CCCCN1,"tsai,rs et al. (1991) ",-2.31,6,11,1,2,0,0,0,0,0,0,,9,
1-methyl-3-propan-2-ylbenzene,C10H14,000535-77-3,CC(C)c1cccc(C)c1,"sherblom,pm & eganhouse,rp (1988) ",4.5,10,14,0,0,0,0,0,0,0,0,,10,
m-chlorobenzoic acid,C7H5Cl1O2,000535-80-8,OC(=O)c1cccc(Cl)c1,"hansch,c et al. (1995) ",2.68,7,5,0,2,0,0,0,1,0,0,,10,
"benzoylhydrazine, p-chloro",C7H7Cl1N2O1,000536-40-3,Clc1ccc(C(=O)NN)cc1,"hansch,c et al. (1995) ",1.18,7,7,2,1,0,0,0,1,0,0,,11,
(4-prop-1-en-2-yl-1-cyclohexenyl)methanol,C10H16O1,000536-59-4,CC(=C)C1CCC(=CC1)CO,"griffin,s et al. (1999) ",3.17,10,16,0,1,0,0,0,0,0,0,,11,
4-propan-2-ylbenzoic acid,C10H12O2,000536-66-3,CC(C)c1ccc(cc1)C(O)=O,"hansch,c et al. (1995) ",3.4,10,12,0,2,0,0,0,0,0,0,,12,
ethynylbenzene,C8H6,000536-74-3,C#Cc1ccccc1,"hansch,c et al. (1995) ",2.53,8,6,0,0,0,0,0,0,0,0,,8,
4-ethylpyridine,C7H9N1,000536-75-4,CCc1ccncc1,"hansch,c et al. (1995) ",1.65,7,9,1,0,0,0,0,0,0,0,,8,
3-ethylpyridine,C7H9N1,000536-78-7,CCc1cccnc1,"hansch,c et al. (1995) ",1.66,7,9,1,0,0,0,0,0,0,0,,8,
3-methoxyaniline,C7H9N1O1,000536-90-3,COc1cccc(N)c1,"hansch,c et al. (1995) ",0.93,7,9,1,1,0,0,0,0,0,0,,9,
30639-16-8,C10H15N1,000537-46-2,CNC(C)Cc1ccccc1,"hansch,c et al. (1995) ",2.07,10,15,1,0,0,0,0,0,0,0,,11,
3-amino-1-phenylurea,C7H9N3O1,000537-47-3,NNC(=O)Nc1ccccc1,"kramer,cr & beck,l (1981) ",0.16,7,9,3,1,0,0,0,0,0,0,,11,
2-acetamido-3-(4-hydroxyphenyl)propanoic acid,C11H13N1O4,000537-55-3,CC(=O)NC(Cc1ccc(O)cc1)C(O)=O,"huang,ch et al. (1985) ",1.32,11,13,1,4,0,0,0,0,0,0,,16,
n-hydroxy-3-[3-(hydroxy-oxidoazaniumyl)phenyl]disulfanylbenzeneamine oxide,C12H8N2O4S2,000537-91-7,O[NH+]([O-])c1cccc(SSc2cccc(c2)[NH+](O)[O-])c1,"hansch,c et al. (1995) ",4.06,12,8,2,4,2,0,0,0,0,0,,20,
n-(3-methylphenyl)acetamide,C9H11N1O1,000537-92-8,CC(=O)Nc1cccc(C)c1,"hansch,c et al. (1995) ",1.68,9,11,1,1,0,0,0,0,0,0,,11,
phenylmethylurea,C8H10N2O1,000538-32-9,NC(=O)NCc1ccccc1,"hansch,c et al. (1995) ",0.73,8,10,2,1,0,0,0,0,0,0,,11,
"3-(phenoxy)propane-1,2-diol",C9H12O3,000538-43-2,OCC(O)COc1ccccc1,"hansch,c et al. (1995) ",0.7,9,12,0,3,0,0,0,0,0,0,,12,
"n,1-di(phenyl)methanimine",C13H11N1,000538-51-2,c1ccc(cc1)C=Nc2ccccc2,"hansch,c et al. (1995) ",2.82,13,11,1,0,0,0,0,0,0,0,,14,
pentylbenzene,C11H16,000538-68-1,CCCCCc1ccccc1,"hansch,c et al. (1995) ",4.9,11,16,0,0,0,0,0,0,0,0,,11,
"1-butenamine, n-methyl-4-(3-pyridinyl)-",C10H14N2,not,CNC=CCCc1cccnc1,biobyte (1995) ,1.13,10,14,2,0,0,0,0,0,0,0,,12,
methoxymethylbenzene,C8H10O1,000538-86-3,COCc1ccccc1,"hansch,c et al. (1995) ",1.92,8,10,0,1,0,0,0,0,0,0,,9,
p-chloroacetanilide,C8H8Cl1N1O1,000539-03-7,CC(=O)Nc1ccc(Cl)cc1,sangster (1994) ,2.09,8,8,1,1,0,0,0,1,0,0,,11,
ethoxymethylbenzene,C9H12O1,000539-30-0,CCOCc1ccccc1,sangster (1993) ,2.16,9,12,0,1,0,0,0,0,0,0,,10,
"1,4-difluorobenzene",C6H4F2,000540-36-3,Fc1ccc(F)cc1,"dunn,wj et al. (1983) ",2.13,6,4,0,0,0,0,2,0,0,0,,8,
4-iodoaniline,C6H6I1N1,000540-37-4,Nc1ccc(I)cc1,"hansch,c et al. (1995) ",2.34,6,6,1,0,0,0,0,0,0,1,,8,
4-iodophenol,C6H5I1O1,000540-38-5,Oc1ccc(I)cc1,"hansch,c et al. (1995) ",2.91,6,5,0,1,0,0,0,0,0,1,,8,
2-bromoethanol,C2H5Br1O1,000540-51-2,OCCBr,"hansch,c et al. (1995) ",0.23,2,5,0,1,0,0,0,0,1,0,,4,
1-chloropropane,C3H7Cl1,000540-54-5,CCCCl,"hansch,c et al. (1995) ",2.04,3,7,0,0,0,0,0,1,0,0,,4,
2-aminoacetonitrile,C2H4N2,000540-61-4,NCC#N,"hansch,c et al. (1995) ",-1.37,2,4,2,0,0,0,0,0,0,0,,4,
tert-butyl acetate,C6H12O2,000540-88-5,CC(=O)OC(C)(C)C,"hansch,c et al. (1995) ",1.76,6,12,0,2,0,0,0,0,0,0,,8,
butanamide,C4H9N1O1,000541-35-5,CCCC(N)=O,"hansch,c et al. (1995) ",-0.21,4,9,1,1,0,0,0,0,0,0,,6,
"pyrrole-2,5-dione",C4H3N1O2,000541-59-3,O=C1NC(=O)C=C1,"hansch,c et al. (1995) ",-0.29,4,3,1,2,0,0,0,0,0,0,,7,
3-dichlorobenzene,C6H4Cl2,000541-73-1,Clc1cccc(Cl)c1,"hansch,c et al. (1995) ",3.53,6,4,0,0,0,0,0,2,0,0,,8,
"carbamic acid, (2,2,2-trichloro-1-hydroxyethyl)-",C5H8Cl3N1O3,000541-79-7,OC(NC(O)=O)C(Cl)(Cl)Cl,"hansch,c et al. (1995) ",1.84,5,8,1,3,0,0,0,3,0,0,,12,
oxan-2-one,C5H8O2,000542-28-9,O=C1CCCCO1,"hansch,c et al. (1995) ",-0.35,5,8,0,2,0,0,0,0,0,0,,7,
4-methylpentanenitrile,C6H11N1,000542-54-1,CC(C)CCC#N,"tanii,h & hashimoto,k (1984) ",1.54,6,11,1,0,0,0,0,0,0,0,,7,
"1,3-dichloropropene (trans)",C3H4Cl2,010061-02-6,ClC=CCCl,"tomlin,c (1997) ",2.03,3,4,0,0,0,0,0,2,0,0,,5,
3-chloropropionitrile,C3H4Cl1N1,000542-76-7,ClCCC#N,"tanii,h & hashimoto,k (1984) ",0.18,3,4,1,0,0,0,0,1,0,0,,5,
isothiocyanatoethane,C3H5N1S1,000542-85-8,CCN=C=S,"hansch,c et al. (1995) ",1.47,3,5,1,0,1,0,0,0,0,0,,5,
heptan-2-ol,C7H16O1,000543-49-7,CCCCCC(C)O,"hansch,c et al. (1995) ",2.31,7,16,0,1,0,0,0,0,0,0,,8,
1-chloropentane,C5H11Cl1,000543-59-9,CCCCCCl,"suzuki,t (1991) ",2.73,5,11,0,0,0,0,0,1,0,0,,6,
3-methylbutyl nitrate,C5H11N1O3,000543-87-3,CC(C)CCO[N+]([O-])=O,"hansch,c et al. (1995) ",2.84,5,11,1,3,0,0,0,0,0,0,,9,
3-methyl-1-(3-methylbutoxy)butane,C10H22O1,000544-01-4,CC(C)CCOCCC(C)C,chemicals inspection and testing institu (1992) ,4.25,10,22,0,1,0,0,0,0,0,0,,11,
pentanedinitrile,C5H6N2,000544-13-8,N#CCCCC#N,"tanii,h & hashimoto,k (1985) ",-0.72,5,6,2,0,0,0,0,0,0,0,,7,
"cyclohepta-1,3,5-triene",C7H8,000544-25-2,C1C=CC=CC=C1,"hansch,c et al. (1995) ",2.63,7,8,0,0,0,0,0,0,0,0,,7,
tetradecanoic acid,C14H28O2,000544-63-8,CCCCCCCCCCCCCC(O)=O,sangster (1993) ,6.11,14,28,0,2,0,0,0,0,0,0,,16,
trichloroacetonitrile,C2Cl3N1,000545-06-2,ClC(Cl)(Cl)C#N,"hansch,c et al. (1995) ",2.09,2,0,1,0,0,0,0,3,0,0,,6,
"4-(3,14,16-trihydroxy-10,13-dimethyl-1,2,3,4,5,6,7,8,9,11,12,15,16,17-tetradecahydrocyclopenta[a]phenanthren-17-yl)-5h-furan-2-one",C23H34O5,000545-26-6,CC12CCC(O)CC1CCC3C2CCC4(C)C(C(O)CC34O)C5=CC(=O)OC5,"hansch,c et al. (1995) ",1.6,23,34,0,5,0,0,0,0,0,0,,28,
"4-[3-(4,5-dihydroxy-6-methyloxan-2-yl)oxy-14,16-dihydroxy-10,13-dimethyl-1,2,3,4,5,6,7,8,9,11,12,15,16,17-tetradecahydrocyclopenta[a]phenanthren-17-yl]-5h-furan-2-one",C29H44O8,000545-27-7,CC1OC(CC(O)C1O)OC2CCC3(C)C(CCC4C3CCC5(C)C(C(O)CC45O)C6=CC(=O)OC6)C2,sangster (1993) ,1.77,29,44,0,8,0,0,0,0,0,0,,37,
1-[bis(aziridin-1-yl)phosphoryl]aziridine,C6H12N3O1P1,000545-55-1,O=[P](N1CC1)(N2CC2)N3CC3,"sosnovsky,g et al. (1985) ",-0.62,6,12,3,1,0,1,0,0,0,0,,11,
"5-(2-bromoprop-2-enyl)-5-propan-2-yl-1,3-diazinane-2,4,6-trione",C10H13Br1N2O3,000545-93-7,CC(C)C1(CC(Br)=C)C(=O)NC(=O)NC1=O,"hansch,c et al. (1995) ",1.47,10,13,2,3,0,0,0,0,1,0,,16,
"5,8a-dimethyl-3-methylidene-5,6,7,8,9,9a-hexahydro-3ah-benzo[f][1]benzoxol-2-one",C15H20O2,000546-43-0,CC1CCCC2(C)CC3OC(=O)C(=C)C3C=C12,sangster (1993) ,3.38,15,20,0,2,0,0,0,0,0,0,,17,
n-hydroxyacetamide,C2H5N1O2,000546-88-3,CC(=O)NO,"hansch,c et al. (1995) ",-1.59,2,5,1,2,0,0,0,0,0,0,,5,
4-[(4-aminophenyl)sulfonylamino]benzenesulfonamide,C12H13N3O4S2,000547-52-4,Nc1ccc(cc1)[S](=O)(=O)Nc2ccc(cc2)[S](N)(=O)=O,"hansch,c et al. (1995) ",0.35,12,13,3,4,2,0,0,0,0,0,,21,
"4-(3,6,7-trihydroxy-10,13-dimethyl-2,3,4,5,6,7,8,9,11,12,14,15,16,17-tetradecahydro-1h-cyclopenta[a]phenanthren-17-yl)pentanoic acid",C24H40O5,000547-75-1,CC(CCC(O)=O)C1CCC2C3C(O)C(O)C4CC(O)CCC4(C)C3CCC12C,"roda,a et al. (1990) ",2.8,24,40,0,5,0,0,0,0,0,0,,29,
"3-[1-[4-(4-fluorophenyl)-4-oxobutyl]-3,6-dihydro-2h-pyridin-4-yl]-1h-benzimidazol-2-one",C22H22F1N3O2,000548-73-2,Fc1ccc(cc1)C(=O)CCCN2CCC(=CC2)N3C(=O)Nc4ccccc34,sangster (1993) ,3.5,22,22,3,2,0,0,1,0,0,0,,28,
"2-methylisoindole-1,3-dione",C9H7N1O2,000550-44-7,CN1C(=O)c2ccccc2C1=O,"hansch,c et al. (1995) ",1.31,9,7,1,2,0,0,0,0,0,0,,12,
1-isothiocyanatonaphthalene,C11H7N1S1,000551-06-4,S=C=Nc1cccc2ccccc12,"hansch,c et al. (1995) ",4.34,11,7,1,0,1,0,0,0,0,0,,13,
prostaglandin,C20H34O5,000551-11-1,CCCCCC(OC(C)=O)/C=C/C1C=CC(=O)C1C\C=C\CCCC(=O)OC,"bodor,h & huang,m (1992) ",4.39,20,34,0,5,0,0,0,0,0,0,,25,
"3,3-dimethyl-7-oxo-6-[2-(phenoxy)butanoylamino]-4-thia-1-azabicyclo[3.2.0]heptane-2-carboxylic acid",C18H22N2O5S1,000551-27-9,CCC(Oc1ccccc1)C(=O)NC2C3SC(C)(C)C(N3C2=O)C(O)=O,"hansch,c et al. (1995) ",2.65,18,22,2,5,1,0,0,0,0,0,,26,
"1,2-dimethyl-5-nitroimidazole",C5H7N3O2,000551-92-8,Cn1c(C)ncc1[N+]([O-])=O,"kosanovic,dd et al. (1988) ",0.31,5,7,3,2,0,0,0,0,0,0,,10,
1-(2-aminophenyl)ethanone,C8H9N1O1,000551-93-9,CC(=O)c1ccccc1N,"hansch,c et al. (1995) ",1.63,8,9,1,1,0,0,0,0,0,0,,10,
2-nitrobenzoic acid,C7H5N1O4,000552-16-9,OC(=O)c1ccccc1[N+]([O-])=O,"hansch,c et al. (1995) ",1.46,7,5,1,4,0,0,0,0,0,0,,12,
n-(2-nitrophenyl)acetamide,C8H8N2O3,000552-32-9,CC(=O)Nc1ccccc1[N+]([O-])=O,"hansch,c et al. (1995) ",1,8,8,2,3,0,0,0,0,0,0,,13,
"2-(3,4-dihydroxyphenyl)-5,7-dihydroxychroman-4-one",C15H12O6,000552-58-9,Oc1cc(O)c2C(=O)CC(Oc2c1)c3ccc(O)c(O)c3,"perrissoud,d & testa,b (1986) ",2.02,15,12,0,6,0,0,0,0,0,0,,21,
"7-methyl-3h-purine-2,6-dione",C6H6N4O2,000552-62-5,Cn1cnc2NC(=O)NC(=O)c12,"gaspari,f & bonati,m (1987) ",-0.89,6,6,4,2,0,0,0,0,0,0,,12,
n-methyl-n-phenylaniline,C13H13N1,000552-82-9,CN(c1ccccc1)c2ccccc2,"hansch,c et al. (1995) ",3.9,13,13,1,0,0,0,0,0,0,0,,14,
"1,2-di(furan-2-yl)-2-hydroxyethanone",C10H8O4,000552-86-3,OC(c1occc1)C(=O)c2occc2,"hansch,c et al. (1995) ",0.54,10,8,0,4,0,0,0,0,0,0,,14,
"3,4-dihydro-1h-quinolin-2-one",C9H9N1O1,000553-03-7,O=C1CCc2ccccc2N1,sangster (1993) ,1.34,9,9,1,1,0,0,0,0,0,0,,11,
n-(5-nitro-2-propoxyphenyl)acetamide,C11H14N2O4,000553-20-8,CCCOc1ccc(cc1NC(C)=O)[N+]([O-])=O,"furst,w & becher,m (1990) ",1.6,11,14,2,4,0,0,0,0,0,0,,17,
4-pyridin-4-ylpyridine,C10H8N2,000553-26-4,c1cc(ccn1)c2ccncc2,"de voogt,p et al. (1990) ",1.28,10,8,2,0,0,0,0,0,0,0,,12,
"n,n-di-b-chloroethylaniline",C10H13Cl2N1,000553-27-5,ClCCN(c1ccccc1)CCCl,"hansch,c et al. (1995) ",2.9,10,13,1,0,0,0,0,2,0,0,,13,
1-furan-3-yl-4-methylpentan-1-one,C10H14O2,000553-84-4,CC(C)CCC(=O)c1cocc1,"hansch,c et al. (1995) ",2.76,10,14,0,2,0,0,0,0,0,0,,12,
dimethyl oxalate,C4H6O4,000553-90-2,COC(=O)C(=O)OC,"hansch,c et al. (1995) ",-0.17,4,6,0,4,0,0,0,0,0,0,,8,