Names,Formula,CAS No,SMILES,Reference,Exp logp,C,H,N,O,S,P,F,Cl,Br,I,,,
"4,6-dimethyl-n-phenylpyrimidin-2-amine",C12H13N3,053112-28-0,Cc1cc(C)nc(Nc2ccccc2)n1,"tomlin,c (1997); ph 6.1 ",2.84,12,13,3,0,0,0,0,0,0,0,,15,
"2h-benzimidazol-2-one, 1-[1-[4,4-bis(4-fluorophe",C28H28Cl1F2N3O1,053179-12-7,Clc1ccc4c(NC(=O)N4C2CCN(CCCC(c5ccc(F)cc5)c3ccc(F)cc3)CC2)c1,sangster (1994) ,7.1,28,28,3,1,0,0,2,1,0,0,,35,
"1,3,3-trimethyl-2h-quinolin-4-one",C12H15N1O1,053207-52-6,CN1CC(C)(C)C(=O)c2ccccc12,sangster (1994) ,2.72,12,15,1,1,0,0,0,0,0,0,,14,
"[2,8-bis(trifluoromethyl)quinolin-4-yl]-piperidin-2-ylmethanol",C17H16F6N2O1,053230-10-7,OC(C1CCCCN1)c2cc(nc3c2cccc3C(F)(F)F)C(F)(F)F,biobyte starlist (2009) ,4.49,17,16,2,1,0,0,6,0,0,0,,26,
1-phenylbutan-2-amine,C10H15N1,053309-89-0,CCC(N)Cc1ccccc1,"hansch,c et al. (1995) ",2.28,10,15,1,0,0,0,0,0,0,0,,11,
n-(3-bromophenyl)-2-piperidin-1-ylacetamide,C13H17Br1N2O1,053316-92-0,Brc1cccc(NC(=O)CN2CCCCC2)c1,"hansch,c et al. (1995) ",3.62,13,17,2,1,0,0,0,0,1,0,,17,
1-hexyl-3-methylthiourea,C8H18N2S1,053393-06-9,CCCCCCNC(=S)NC,"leahy,de et al. (1989) ",2.31,8,18,2,0,1,0,0,0,0,0,,11,
"2-pyrimidinamine, 4-[2-(1-methyl-5-nitro-1h-imid",C10H9N5O2,053409-75-9,Cn2c(N(=O)(=O))cnc2C=Cc1ccncn1,sangster (1993) ,0.85,10,9,5,2,0,0,0,0,0,0,,17,
n-dipyrrolidin-1-ylphosphoryl-n-methylmethanamine,C10H22N3O1P1,053439-65-9,CN(C)[P](=O)(N1CCCC1)N2CCCC2,"debord,j & labadie,m (1985) ",1.88,10,22,3,1,0,1,0,0,0,0,,15,
"9,10-phenanthrenediol, 1,2,3,4,4a,9,10,10a-octah",C14H18O2,053446-99-4,c1cc2c(C(O)C(O)C3C2CCCC3)cc1,sangster (1993) ,2.32,14,18,0,2,0,0,0,0,0,0,,16,
4-methylsulfanylbenzenecarbothioamide,C8H9N1S2,053550-91-7,CSc1ccc(cc1)C(N)=S,"polasek,m et al. (1988) ",2.01,8,9,1,0,2,0,0,0,0,0,,11,
"1,2,3,5-tetrachloronaphthalene",C10H4Cl4,053555-63-8,Clc1cccc2c(Cl)c(Cl)c(Cl)cc12,"opperhuizen,a (1987) ",5.77,10,4,0,0,0,0,0,4,0,0,,14,
"1,3,5,7-tetrachloronaphthalene",C10H4Cl4,053555-64-9,Clc1cc(Cl)c2cc(Cl)cc(Cl)c2c1,"opperhuizen,a (1987) ",6.19,10,4,0,0,0,0,0,4,0,0,,14,
n-[(1-ethylpyrrolidin-2-yl)methyl]-5-ethylsulfonyl-2-methoxybenzamide,C17H26N2O4S1,053583-79-2,CCN1CCCC1CNC(=O)c2cc(ccc2OC)[S](=O)(=O)CC,"mannhold,r et al. (1990) ",1.06,17,26,2,4,1,0,0,0,0,0,,24,
"2-propenoic acid, 3-(2,4-dichlorophenoxy)-, (e)-",C9H6Cl2O3,053596-19-3,OC(=O)/C=C/Oc1ccc(Cl)cc1Cl,sangster (1993) ,3.46,9,6,0,3,0,0,0,2,0,0,,14,
1-dimethylaminopropan-2-ol,C5H13N1O1,053657-16-2,CC(O)CN(C)C,biobyte starlist (2009) ,0.2,5,13,1,1,0,0,0,0,0,0,,7,
"n-methyl-1,3-di(phenyl)propan-2-amine",C16H19N1,053660-20-1,CNC(Cc1ccccc1)Cc2ccccc2,sangster (1993) ,3.8,16,19,1,0,0,0,0,0,0,0,,17,
"n-[2,4-dimethyl-5-(trifluoromethylsulfonylamino)phenyl]acetamide",C11H13F3N2O3S1,053780-34-0,CC(=O)Nc1cc(N[S](=O)(=O)C(F)(F)F)c(C)cc1C,"comer,j et al. (1995) ",2.02,11,13,2,3,1,0,3,0,0,0,,20,
"5-[[3,5-dimethoxy-4-(2-methoxyethoxy)phenyl]methyl]pyrimidine-2,4-diamine",C16H22N4O4,053808-87-0,COCCOc1c(OC)cc(Cc2cnc(N)nc2N)cc1OC,"hansch,c & leo,aj (1985) ",0.56,16,22,4,4,0,0,0,0,0,0,,24,
1-hydroxypentachlorocyclohexane,C6H7Cl5O1,053861-64-6,OC1(Cl)CCCC(Cl)(Cl)C1(Cl)Cl,"hansch,c & leo,aj (1985) ",2.54,6,7,0,1,0,0,0,5,0,0,,12,
methyl quinoline-3-carboxylate,C11H9N1O2,053951-84-1,COC(=O)c1cnc2ccccc2c1,"hansch,c et al. (1995) ",2.25,11,9,1,2,0,0,0,0,0,0,,14,
floxacrine,C20H13Cl1F3N1O3,053966-34-0,ON1C2=C(C(=O)CC(C2)c3ccc(cc3)C(F)(F)F)C(=O)c4cc(Cl)ccc14,"hansch,c et al. (1995) ",3.46,20,13,1,3,0,0,3,1,0,0,,28,
5-methoxypyrazin-2-amine,C5H7N3O1,054013-07-9,COc1cnc(N)cn1,"yamagami,c et al. (1991) ",0.63,5,7,3,1,0,0,0,0,0,0,,9,
"13-ethyl-17-ethynyl-17-hydroxy-11-methylidene-2,6,7,8,9,10,12,14,15,16-decahydro-1h-cyclopenta[a]phenanthren-3-one",C22H28O2,not,CCC12CC(=C)C3C(CCC4=CC(=O)CCC34)C1CCC2(O)C#C,daylight (1999) ,3.16,22,28,0,2,0,0,0,0,0,0,,24,
clobetasone,C22H26Cl1F1O4,054063-32-0,C[C@H]1C[C@H]2[C@@H]3CCC4=CC(=O)C=C[C@]4(C)[C@@]3(F)C(=O)C[C@]2(C)[C@@]1(O)C(=O)CCl,"hansch,c et al. (1995) ",2.61,22,26,0,4,0,0,1,1,0,0,,28,
1-methylsulfonylnaphthalene,C11H10O2S1,054108-51-9,C[S](=O)(=O)c1cccc2ccccc12,"alcorn,cr et al. (1993) ",1.74,11,10,0,2,1,0,0,0,0,0,,14,
"1,2,3-trichloro-4-methoxybenzene",C7H5Cl3O1,054135-80-7,COc1ccc(Cl)c(Cl)c1Cl,"opperhuizen,a & voors,pi (1987) ",3.74,7,5,0,1,0,0,0,3,0,0,,11,
"benzene, 1,2,3-trichloro-5-methoxy-",C7H5Cl3O1,054135-82-9,COc1cc(Cl)c(Cl)c(Cl)c1,"opperhuizen,a & voors,pi (1987) ",4.22,7,5,0,1,0,0,0,3,0,0,,11,
1no1(2clet)3(triacetylxylosyl)urea,C14H20Cl1N3O9,058845-59-3,ClCCN(C(=O)NC1C(OC(=O)(C))C(OC(=O)(C))C(OC(=O)(C))CO1)N=O,"hansch,c & leo,aj (1985) ",1.05,14,20,3,9,0,0,0,1,0,0,,27,
"n-(piperidin-2-ylmethyl)-2,5-bis(2,2,2-trifluoroethoxy)benzamide",C17H20F6N2O3,054143-55-4,FC(F)(F)COc1ccc(OCC(F)(F)F)c(c1)C(=O)NCC2CCCCN2,"mannhold,r et al. (1990) ",3.78,17,20,2,3,0,0,6,0,0,0,,28,
(4-formylphenyl) n-methylcarbamate,C9H9N1O3,054335-83-0,CNC(=O)Oc1ccc(C=O)cc1,"hansch,c et al. (1995) ",0.99,9,9,1,3,0,0,0,0,0,0,,13,
2-(tert-butylamino)-1-(7-ethyl-1-benzofuran-2-yl)ethanol,C16H23N1O2,054340-62-4,CCc1cccc2cc(oc12)C(O)CNC(C)(C)C,"hansch,c et al. (1995) ",3.5,16,23,1,2,0,0,0,0,0,0,,19,
2-methyl-n-phenylbutanamide,C11H15N1O1,054394-78-4,CCC(C)C(=O)Nc1ccccc1,"hansch,c et al. (1995) ",2.56,11,15,1,1,0,0,0,0,0,0,,13,
2-(1h-indol-3-ylsulfanyl)acetic acid,C10H9N1O2S1,054466-88-5,OC(=O)CSc1c[nH]c2ccccc12,"hansch,c et al. (1995) ",1.78,10,9,1,2,1,0,0,0,0,0,,14,
"3,6-dimethyl-6,7,8,9-tetrahydropyrido[6,1-b]pyrimidin-4-one",C10H14N2O1,054504-62-0,CC1CCCC2=NC=C(C)C(=O)N12,sangster (1993) ,0.82,10,14,2,1,0,0,0,0,0,0,,13,
chlorethoxyfos,C6H11Cl4O3P1S1,054593-83-8,CCO[P](=S)(OCC)OC(Cl)C(Cl)(Cl)Cl,"tomlin,c (1994) ",4.59,6,11,0,3,1,1,0,4,0,0,,15,
"4-oxo-6,7,8,9-tetrahydropyrido[1,2-a]pyrimidine-3-carboxamide",C9H11N3O2,054606-23-4,NC(=O)C1=CN=C2CCCCN2C1=O,sangster (1994) ,-0.38,9,11,3,2,0,0,0,0,0,0,,14,
1-ethyl-1-nitroso-3-phenylurea,C9H11N3O2,054680-35-2,CCN(N=O)C(=O)Nc1ccccc1,"hansch,c et al. (1995) ",2.25,9,11,3,2,0,0,0,0,0,0,,14,
1-cyclohexylpropan-2-amine,C9H19N1,054704-34-6,CC(N)CC1CCCCC1,sangster (1993) ,2.96,9,19,1,0,0,0,0,0,0,0,,10,
2-methylsulfanylbenzamide,C8H9N1O1S1,054705-16-7,CSc1ccccc1C(N)=O,"sotomatsu,t et al. (1993) ",0.71,8,9,1,1,1,0,0,0,0,0,,11,
"beta-d-glucopyranose, 2-[[[(2-chloroethyl)nitros",C9H16Cl1N3O7,070866-07-8,OC1C(NC(=O)N(N=O)CCCl)C(O)C(O)C(CO)O1,sangster (1994) ,-0.66,9,16,3,7,0,0,0,1,0,0,,20,
cyanoimino-oxido-phenylazanium,C7H5N3O1,054797-20-5,[O-][N+](=NC#N)c1ccccc1,"calvino,r et al. (1991) ",1.87,7,5,3,1,0,0,0,0,0,0,,11,
cyanoimino-(4-methylphenyl)-oxidoazanium,C8H7N3O1,054797-21-6,Cc1ccc(cc1)[N+]([O-])=NC#N,"calvino,r et al. (1991) ",2.39,8,7,3,1,0,0,0,0,0,0,,12,
p-chlorophenyl azoxycyanide,C7H4Cl1N3O1,054797-22-7,c1c(Cl)ccc(N(=O)=NC(#N))c1,"calvino,r et al. (1991) ",2.33,7,4,3,1,0,0,0,1,0,0,,12,
"3,5-dicl-4'-f salicylanilide",C13H8Cl2F1N1O2,054850-02-1,c1c(F)ccc(NC(=O)c2c(O)c(Cl)cc(Cl)c2)c1,"terada,h et al. (1988) ",4.76,13,8,1,2,0,0,1,2,0,0,,19,
meglitinide,C17H16Cl1N1O4,054870-28-9,COc1ccc(Cl)cc1C(=O)NCCc2ccc(cc2)C(O)=O,"hansch,c et al. (1995) ",3.4,17,16,1,4,0,0,0,1,0,0,,23,
n-methyl-3-phenyl-3-[4-(trifluoromethyl)phenoxy]propan-1-amine,C17H18F3N1O1,not,CNCCC(Oc1ccc(cc1)C(F)(F)F)c2ccccc2,biobyte (1995) ,3.82,17,18,1,1,0,0,3,0,0,0,,22,
methyl n-(6-propylsulfanyl-1h-benzimidazol-2-yl)carbamate,C12H15N3O2S1,054965-21-8,CCCSc1ccc2nc(NC(=O)OC)[nH]c2c1,sangster (2006) ,3.07,12,15,3,2,1,0,0,0,0,0,,18,
1-(4-methyl-1-phenylcyclohexyl)piperidine,C18H27N1,055040-03-4,CC1CCC(CC1)(N2CCCCC2)c3ccccc3,sangster (1993) ,5.66,18,27,1,0,0,0,0,0,0,0,,19,
2-piperidin-1-ylacetic acid,C7H13N1O2,055049-18-8,OC(=O)CN1CCCCC1,"hansch,c et al. (1995) ",-1.05,7,13,1,2,0,0,0,0,0,0,,10,
"2,4,6,8-nonatetraenoic acid, 9-(4-methoxy-2,3,6-",C21H26O3,055079-83-9,CC(=CC(=O)(O))C=CC=C(C)C=Cc1c(C)c(C)c(OC)cc1C,sangster (1993) ,6.4,21,26,0,3,0,0,0,0,0,0,,24,
dipropan-2-yl 2-[bis(methylsulfanyl)methylidene]propanedioate,C12H20O4S2,055084-16-7,CSC(SC)=C(C(=O)OC(C)C)C(=O)OC(C)C,biobyte (1995) ,3.38,12,20,0,4,2,0,0,0,0,0,,18,
"3,3-dimethyl-1-(4-phenylphenoxy)-1-(1,2,4-triazol-1-yl)butan-2-ol",C20H23N3O2,055179-31-2,CC(C)(C)C(O)C(Oc1ccc(cc1)c2ccccc2)n3cncn3,"hansch,c et al. (1995) ",4.16,20,23,3,2,0,0,0,0,0,0,,25,
"2,2',3,3',4,5-hexachlorobiphenyl",C12H4Cl6,055215-18-4,Clc1cccc(c1Cl)c2cc(Cl)c(Cl)c(Cl)c2Cl,biobyte (1995) ,7.32,12,4,0,0,0,0,0,6,0,0,,18,
triadimenol (diastereoisomer a),C14H18Cl1N3O2,089482-17-7,C(n2cncn2)(Oc1ccc(Cl)cc1)C(O)C(C)(C)C,"tomlin,c (1997) ",3.08,14,18,3,2,0,0,0,1,0,0,,20,
n-(2-diethylaminoethyl)-5-fluoro-2-methoxybenzamide,C14H21F1N2O2,055236-14-1,CCN(CC)CCNC(=O)c1cc(F)ccc1OC,"hansch,c & leo,aj (1985) ",2.62,14,21,2,2,0,0,1,0,0,0,,19,
2-f-3-br-tetrachlorocyclohexane,C6H6Br1Cl4F1,055265-51-5,C1(Br)C(F)C(Cl)C(Cl)C(Cl)C1Cl,"hansch,c & leo,aj (1985) ",3.28,6,6,0,0,0,0,1,4,1,0,,12,
"2,3-dibr-tetrachlorocyclohexane",C6H6Br2Cl4,055332-89-3,C1(Br)C(Cl)C(Cl)C(Cl)C(Br)C1Cl,"hansch,c & leo,aj (1985) ",3.99,6,6,0,0,0,0,0,4,2,0,,12,
cefuroxim,C16H16N4O8S1,055268-75-2,CO/N=C(C(=O)N[C@H]1[C@H]2SCC(=C(N2C1=O)C(O)=O)COC(N)=O)/c3occc3,sangster (1993) ,-0.16,16,16,4,8,1,0,0,0,0,0,,29,
"n-ethyl-n-(2-methylprop-2-enyl)-2,6-dinitro-4-(trifluoromethyl)aniline",C13H14F3N3O4,055283-68-6,CCN(CC(C)=C)c1c(cc(cc1[N+]([O-])=O)C(F)(F)F)[N+]([O-])=O,"tomlin,c (1994) ",5.11,13,14,3,4,0,0,3,0,0,0,,23,
"2,3-dimethyl-5,6-dihydro-1,4-dithiine 1,1,4,4-tetraoxide",C6H10O4S2,055290-64-7,CC1=C(C)[S](=O)(=O)CC[S]1(=O)=O,"tomlin,c (1994) ",-0.17,6,10,0,4,2,0,0,0,0,0,,12,
"1,2,3,4,6,7,12,12a-octahydropyrazino[1,2-b]$b-carboline",C14H17N3,055344-28-0,C1CN2Cc3[nH]c4ccccc4c3CC2CN1,biobyte (1995) ,0.36,14,17,3,0,0,0,0,0,0,0,,17,
"(2-butan-2-ylphenyl) n,n-dimethylcarbamate",C13H19N1O2,055379-70-9,CCC(C)c1ccccc1OC(=O)N(C)C,"hansch,c & leo,aj (1985) ",3.31,13,19,1,2,0,0,0,0,0,0,,16,
phenyl pyrrolidine-1-carboxylate,C11H13N1O2,055379-71-0,O=C(Oc1ccccc1)N2CCCC2,"nandihalli,ub et al. (1993) ",2.73,11,13,1,2,0,0,0,0,0,0,,14,
"2,6-dimethyl-1,4-dinitrosopiperazine",C6H12N4O2,055380-34-2,CC1CN(CC(C)N1N=O)N=O,"hansch,c & leo,aj (1985) ",0.08,6,12,4,2,0,0,0,0,0,0,,12,
4-dimethylaminodiazenylbenzenesulfonamide,C8H12N4O2S1,055469-64-2,CN(C)N=Nc1ccc(cc1)[S](N)(=O)=O,"hansch,c & leo,aj (1985) ",1.06,8,12,4,2,1,0,0,0,0,0,,15,
4-ethyl-5-methyldithiole-3-thione,C6H8S3,055486-68-5,CCC1=C(C)SSC1=S,"bona,m et al. (1995) ",2.94,6,8,0,0,3,0,0,0,0,0,,9,
"3,4-dichlorodiphenyl ether",C12H8Cl2O1,055538-69-7,Clc1c(Cl)ccc(Oc2ccccc2)c1,"kurz,j & ballschmiter,k (1999) ",4.99,12,8,0,1,0,0,0,2,0,0,,15,
1-nitrosopiperidin-3-ol,C5H10N2O2,055556-85-9,OC1CCCN(C1)N=O,"hansch,c et al. (1995) ",-0.47,5,10,2,2,0,0,0,0,0,0,,9,
"2,5-dimethyl-1-nitrosopyrrolidine",C6H12N2O1,055556-86-0,CC1CCC(C)N1N=O,"hansch,c & leo,aj (1985) ",0.86,6,12,2,1,0,0,0,0,0,0,,9,
"2,5-dimethyl-1,4-dinitrosopiperazine",C6H12N4O2,055556-88-2,CC1CN(N=O)C(C)CN1N=O,"hansch,c & leo,aj (1985) ",0.15,6,12,4,2,0,0,0,0,0,0,,12,
1-nitrosopiperidin-4-one,C5H8N2O2,055556-91-7,O=NN1CCC(=O)CC1,"hansch,c & leo,aj (1985) ",-0.47,5,8,2,2,0,0,0,0,0,0,,9,
"1-nitroso-3,6-dihydro-2h-pyridine",C5H8N2O1,055556-92-8,O=NN1CCC=CC1,sangster (1993) ,1.18,5,8,2,1,0,0,0,0,0,0,,8,
1-nitrosopiperidin-4-ol,C5H10N2O2,055556-93-9,OC1CCN(CC1)N=O,"hansch,c & leo,aj (1985) ",-0.89,5,10,2,2,0,0,0,0,0,0,,9,
"2-methyl-1,4-dinitrosopiperazine",C5H10N4O2,055556-94-0,CC1CN(CCN1N=O)N=O,"hansch,c & leo,aj (1985) ",-0.28,5,10,4,2,0,0,0,0,0,0,,11,
"1,4-dinitroso-1,4-diazepane",C5H10N4O2,055557-00-1,O=NN1CCCN(CC1)N=O,"hansch,c & leo,aj (1985) ",-0.51,5,10,4,2,0,0,0,0,0,0,,11,
4-methoxy-n-phenylbenzohydrazide,C14H14N2O2,055685-56-8,COc1ccc(cc1)C(=O)N(N)c2ccccc2,"britto,mm et al. (1999) ",2.83,14,14,2,2,0,0,0,0,0,0,,18,
"ethyl 4-[(2,4-diaminopyrimidin-5-yl)methyl]-2,6-dimethoxybenzoate",C16H20N4O4,055687-48-4,CCOC(=O)c1c(OC)cc(Cc2cnc(N)nc2N)cc1OC,"hansch,c & leo,aj (1985) ",1.25,16,20,4,4,0,0,0,0,0,0,,24,
"[4-[(2,4-diaminopyrimidin-5-yl)methyl]-2,6-dimethoxyphenyl]methanol",C14H18N4O3,055687-49-5,COc1cc(Cc2cnc(N)nc2N)cc(OC)c1CO,"hansch,c & leo,aj (1985) ",0.42,14,18,4,3,0,0,0,0,0,0,,21,
"2-[4-[(2,4-diaminopyrimidin-5-yl)methyl]-2,6-diethoxyphenyl]propan-2-ol",C18H26N4O3,055687-56-4,CCOc1cc(Cc2cnc(N)nc2N)cc(OCC)c1C(C)(C)O,"hansch,c & leo,aj (1985) ",2.46,18,26,4,3,0,0,0,0,0,0,,25,
"4-[(2,4-diaminopyrimidin-5-yl)methyl]-2,6-dimethoxybenzamide",C14H17N5O3,055687-57-5,COc1cc(Cc2cnc(N)nc2N)cc(OC)c1C(N)=O,"hansch,c & leo,aj (1985) ",-0.85,14,17,5,3,0,0,0,0,0,0,,22,
"4-[(2,4-diaminopyrimidin-5-yl)methyl]-2,6-dimethoxybenzonitrile",C14H15N5O2,055687-58-6,COc1cc(Cc2cnc(N)nc2N)cc(OC)c1C#N,"hansch,c & leo,aj (1985) ",1.39,14,15,5,2,0,0,0,0,0,0,,21,
"1-[4-[(2,4-diaminopyrimidin-5-yl)methyl]-2,6-diethoxyphenyl]-2-methylsulfonylethanone",C18H24N4O5S1,055687-72-4,CCOc1cc(Cc2cnc(N)nc2N)cc(OCC)c1C(=O)C[S](C)(=O)=O,"hansch,c & leo,aj (1985) ",0.79,18,24,4,5,1,0,0,0,0,0,,28,
"1-[4-[(2,4-diaminopyrimidin-5-yl)methyl]-2,6-dimethoxyphenyl]ethanone",C15H18N4O3,055687-76-8,COc1cc(Cc2cnc(N)nc2N)cc(OC)c1C(C)=O,"hansch,c & leo,aj (1985) ",1.1,15,18,4,3,0,0,0,0,0,0,,22,
"2-[4-[(2,4-diaminopyrimidin-5-yl)methyl]-2,6-dimethoxyphenyl]propan-2-ol",C16H22N4O3,055687-91-7,COc1cc(Cc2cnc(N)nc2N)cc(OC)c1C(C)(C)O,"hansch,c & leo,aj (1985) ",1.49,16,22,4,3,0,0,0,0,0,0,,23,
"2,3,6-trichlorobiphenyl",C12H7Cl3,055702-45-9,Clc1ccc(Cl)c(c2ccccc2)c1Cl,"hansch,c & leo,aj (1985) ",5.67,12,7,0,0,0,0,0,3,0,0,,15,
"2,3,4-trichloro-1,1'-biphenyl",C12H7Cl3,055702-46-0,Clc1ccc(c2ccccc2)c(Cl)c1Cl,biobyte (1995) ,5.86,12,7,0,0,0,0,0,3,0,0,,15,
"1,3,7-trichloronaphthalene",C10H5Cl3,055720-37-1,Clc1ccc2cc(Cl)cc(Cl)c2c1,"opperhuizen,a (1987) ",5.35,10,5,0,0,0,0,0,3,0,0,,13,
"2,3,6-trichloronaphthalene",C10H5Cl3,055720-40-6,Clc1ccc2cc(Cl)c(Cl)cc2c1,"opperhuizen,a (1987) ",5.12,10,5,0,0,0,0,0,3,0,0,,13,
"1,4,6,7-tetrachloronaphthalene",C10H4Cl4,055720-43-9,Clc1ccc(Cl)c2cc(Cl)c(Cl)cc12,"opperhuizen,a (1987) ",5.81,10,4,0,0,0,0,0,4,0,0,,14,
"phenylmethyl 2-amino-3-(3,4-dihydroxyphenyl)propanoate",C16H17N1O4,055720-47-3,NC(Cc1ccc(O)c(O)c1)C(=O)OCc2ccccc2,"marrel,c et al. (1985) ",1.5,16,17,1,4,0,0,0,0,0,0,,21,
"6-(2,5-dioxopyrrol-1-yl)hexanoic acid",C10H13N1O4,055750-53-3,OC(=O)CCCCCN1C(=O)C=CC1=O,"hansch,c et al. (1995) ",1.15,10,13,1,4,0,0,0,0,0,0,,15,
oprea1_073359,C9H13N1,055755-16-3,Cc1ccccc1CCN,"kril,mb & fung,hl (1990) ",1.6,9,13,1,0,0,0,0,0,0,0,,10,
2-[(4-iodobenzoyl)amino]acetic acid,C9H8I1N1O3,055790-22-2,OC(=O)CNC(=O)c1ccc(I)cc1,"laznicek,m & kvetina,j (1988) ",1.94,9,8,1,3,0,0,0,0,0,1,,14,
2-piperidin-1-ylethyl n-(2-methoxyphenyl)carbamate,C15H22N2O3,076875-80-4,COc1ccccc1NC(=O)OCCN2CCCCC2,biobyte (1995) ,2.71,15,22,2,3,0,0,0,0,0,0,,20,
2-piperidin-1-ylethyl n-(3-methoxyphenyl)carbamate,C15H22N2O3,076875-81-5,COc1cccc(NC(=O)OCCN2CCCCC2)c1,biobyte (1995) ,2.92,15,22,2,3,0,0,0,0,0,0,,20,
2-piperidin-1-ylethyl n-(4-methoxyphenyl)carbamate,C15H22N2O3,not,COc1ccc(NC(=O)OCCN2CCCCC2)cc1,biobyte (1995) ,2.55,15,22,2,3,0,0,0,0,0,0,,20,
2-piperidin-1-ylethyl n-(2-ethoxyphenyl)carbamate,C16H24N2O3,not,CCOc1ccccc1NC(=O)OCCN2CCCCC2,biobyte (1995) ,3.17,16,24,2,3,0,0,0,0,0,0,,21,
2-piperidin-1-ylethyl n-(4-ethoxyphenyl)carbamate,C16H24N2O3,not,CCOc1ccc(NC(=O)OCCN2CCCCC2)cc1,biobyte (1995) ,3,16,24,2,3,0,0,0,0,0,0,,21,
2-piperidin-1-ylethyl n-(2-propoxyphenyl)carbamate,C17H26N2O3,069852-96-6,CCCOc1ccccc1NC(=O)OCCN2CCCCC2,biobyte (1995) ,3.81,17,26,2,3,0,0,0,0,0,0,,22,
2-piperidin-1-ylethyl n-(4-propoxyphenyl)carbamate,C17H26N2O3,not,CCCOc1ccc(NC(=O)OCCN2CCCCC2)cc1,biobyte (1995) ,3.78,17,26,2,3,0,0,0,0,0,0,,22,
2-piperidin-1-ylethyl n-(2-butoxyphenyl)carbamate,C18H28N2O3,069852-97-7,CCCCOc1ccccc1NC(=O)OCCN2CCCCC2,biobyte (1995) ,4.37,18,28,2,3,0,0,0,0,0,0,,23,
2-piperidin-1-ylethyl n-(3-butoxyphenyl)carbamate,C18H28N2O3,not,CCCCOc1cccc(NC(=O)OCCN2CCCCC2)c1,biobyte (1995) ,4.62,18,28,2,3,0,0,0,0,0,0,,23,
2-piperidin-1-ylethyl n-(4-butoxyphenyl)carbamate,C18H28N2O3,not,CCCCOc1ccc(NC(=O)OCCN2CCCCC2)cc1,biobyte (1995) ,4.27,18,28,2,3,0,0,0,0,0,0,,23,
2-piperidin-1-ylethyl n-(2-pentoxyphenyl)carbamate,C19H30N2O3,055792-16-0,CCCCCOc1ccccc1NC(=O)OCCN2CCCCC2,biobyte (1995) ,4.97,19,30,2,3,0,0,0,0,0,0,,24,
2-piperidin-1-ylethyl n-(4-pentoxyphenyl)carbamate,C19H30N2O3,not,CCCCCOc1ccc(NC(=O)OCCN2CCCCC2)cc1,biobyte (1995) ,4.9,19,30,2,3,0,0,0,0,0,0,,24,
2-piperidin-1-ylethyl n-(2-hexoxyphenyl)carbamate,C20H32N2O3,055792-18-2,CCCCCCOc1ccccc1NC(=O)OCCN2CCCCC2,"hansch,c et al. (1995) ",5.29,20,32,2,3,0,0,0,0,0,0,,25,
2-piperidin-1-ylethyl n-(4-hexoxyphenyl)carbamate,C20H32N2O3,055792-20-6,CCCCCCOc1ccc(NC(=O)OCCN2CCCCC2)cc1,"hansch,c et al. (1995) ",5.41,20,32,2,3,0,0,0,0,0,0,,25,
2-piperidin-1-ylethyl n-(2-heptoxyphenyl)carbamate,C21H34N2O3,076629-85-1,CCCCCCCOc1ccccc1NC(=O)OCCN2CCCCC2,biobyte starlist (2009) ,6.06,21,34,2,3,0,0,0,0,0,0,,26,
2-piperidin-1-ylethyl n-(3-heptoxyphenyl)carbamate,C21H34N2O3,055792-22-8,CCCCCCCOc1cccc(NC(=O)OCCN2CCCCC2)c1,"hansch,c et al. (1995) ",5.53,21,34,2,3,0,0,0,0,0,0,,26,
2-piperidin-1-ylethyl n-(4-heptoxyphenyl)carbamate,C21H34N2O3,055792-23-9,CCCCCCCOc1ccc(NC(=O)OCCN2CCCCC2)cc1,"hansch,c et al. (1995) ",5.87,21,34,2,3,0,0,0,0,0,0,,26,
2-piperidin-1-ylethyl n-(2-octoxyphenyl)carbamate,C22H36N2O3,055792-24-0,CCCCCCCCOc1ccccc1NC(=O)OCCN2CCCCC2,"hansch,c et al. (1995) ",6.36,22,36,2,3,0,0,0,0,0,0,,27,
2-methyl-n-(3-propan-2-yloxyphenyl)benzamide,C17H19N1O2,055814-41-0,CC(C)Oc1cccc(NC(=O)c2ccccc2C)c1,"hansch,c et al. (1995) ",3.66,17,19,1,2,0,0,0,0,0,0,,20,
4-ethoxybenzamide,C9H11N1O2,055836-71-0,CCOc1ccc(cc1)C(N)=O,"nakagawa,y et al. (1992) ",1.3,9,11,1,2,0,0,0,0,0,0,,12,
1-(2-cyclohexylphenoxy)-3-(propan-2-ylamino)propan-2-ol,C18H29N1O2,055837-19-9,CC(C)NCC(O)COc1ccccc1C2CCCCC2,biobyte starlist (2009) ,3.68,18,29,1,2,0,0,0,0,0,0,,21,
2-[2-[2-[4-[di(phenyl)methylidene]piperidin-1-yl]ethoxy]ethoxy]ethanol,C24H31N1O3,055837-21-3,OCCOCCOCCN1CCC(CC1)=C(c2ccccc2)c3ccccc3,"hansch,c et al. (1995) ",3.78,24,31,1,3,0,0,0,0,0,0,,28,
2-[4-[3-[6-fluoro-2-(trifluoromethyl)-9h-thioxanthen-9-yl]propyl]piperazin-1-yl]ethanol,C23H26F4N2O1S1,055837-23-5,OCCN1CCN(CCCC2c3ccc(F)cc3Sc4ccc(cc24)C(F)(F)F)CC1,"hansch,c et al. (1995) ",4.47,23,26,2,1,1,0,4,0,0,0,,31,
4-(phenoxy)-3-pyrrolidin-1-yl-5-sulfamoylbenzoic acid,C17H18N2O5S1,055837-27-9,N[S](=O)(=O)c1cc(cc(N2CCCC2)c1Oc3ccccc3)C(O)=O,biobyte (1995) ,3.92,17,18,2,5,1,0,0,0,0,0,,25,
"3-(5-tert-butyl-1,2-oxazol-3-yl)-1,1-dimethylurea",C10H17N3O2,055861-78-4,CN(C)C(=O)Nc1cc(on1)C(C)(C)C,"tomlin,c (1994) ",1.98,10,17,3,2,0,0,0,0,0,0,,15,
2-(11-oxo-6h-benzo[c][2]benzothiepin-3-yl)acetic acid,C16H12O3S1,061220-69-7,OC(=O)Cc1ccc2C(=O)c3ccccc3CSc2c1,biobyte starlist (2009) ,2.97,16,12,0,3,1,0,0,0,0,0,,20,
"benzamide, 4-amino-5-chloro-2-methoxy-n-[1-(phen",C20H24Cl1N3O2,055905-53-8,c1c(C(=O)NC2CCN(Cc3ccccc3)CC2)c(OC)cc(N)c1Cl,"hansch,c et al. (1995) ",3.58,20,24,3,2,0,0,0,1,0,0,,26,
2-piperidin-1-ylethyl n-(4-octoxyphenyl)carbamate,C22H36N2O3,055948-94-2,CCCCCCCCOc1ccc(NC(=O)OCCN2CCCCC2)cc1,"hansch,c et al. (1995) ",6.44,22,36,2,3,0,0,0,0,0,0,,27,
"2-(4-propan-2-ylphenyl)indene-1,3-dione",C18H16O2,055994-21-3,CC(C)c1ccc(cc1)C2C(=O)c3ccccc3C2=O,sangster (1994) ,4.43,18,16,0,2,0,0,0,0,0,0,,20,
"2-(4-octylphenyl)indene-1,3-dione",C23H26O2,055994-22-4,CCCCCCCCc1ccc(cc1)C2C(=O)c3ccccc3C2=O,sangster (1993) ,6.93,23,26,0,2,0,0,0,0,0,0,,25,
"2-(3,5-diethylphenyl)indene-1,3-dione",C19H18O2,055994-23-5,CCc1cc(CC)cc(c1)C2C(=O)c3ccccc3C2=O,sangster (1993) ,4.94,19,18,0,2,0,0,0,0,0,0,,21,
"2-[3,5-di(propan-2-yl)phenyl]indene-1,3-dione",C21H22O2,055994-24-6,CC(C)c1cc(cc(c1)C2C(=O)c3ccccc3C2=O)C(C)C,sangster (1993) ,5.96,21,22,0,2,0,0,0,0,0,0,,23,
n-[4-(methoxymethyl)-1-(2-thiophen-2-ylethyl)piperidin-4-yl]-n-phenylpropanamide,C22H30N2O2S1,060561-17-3,CCC(=O)N(c1ccccc1)C2(CCN(CCc3sccc3)CC2)COC,janssen pharmaceutica (1984) ,3.95,22,30,2,2,1,0,0,0,0,0,,27,
1-methiopentachlorocyclohexane,C7H9Cl5S1,060132-42-5,[CH4+]C1(Cl)CCCC(Cl)(Cl)C1(Cl)Cl,"hansch,c & leo,aj (1985) ",3.75,7,9,0,0,1,0,0,5,0,0,,13,
"5-[(4-amino-3,5-dimethoxyphenyl)methyl]pyrimidine-2,4-diamine",C13H17N5O2,056066-19-4,COc1cc(Cc2cnc(N)nc2N)cc(OC)c1N,"hansch,c & leo,aj (1985) ",0.83,13,17,5,2,0,0,0,0,0,0,,20,