Names,Formula,CAS No,SMILES,Reference,Exp logp,C,H,N,O,S,P,F,Cl,Br,I,,,
"2-(hydroxymethyl)-6-pentoxyoxane-3,4,5-triol",C11H22O6,039824-10-7,CCCCCOC1OC(CO)C(O)C(O)C1O,"hansch,c et al. (1995) ",-0.42,11,22,0,6,0,0,0,0,0,0,,17,
"2-hexoxy-6-(hydroxymethyl)oxane-3,4,5-triol",C12H24O6,039824-11-8,CCCCCCOC1OC(CO)C(O)C(O)C1O,"hansch,c et al. (1995) ",0.16,12,24,0,6,0,0,0,0,0,0,,18,
"5-nitro-1,2-benzoxazole",C7H4N2O3,039835-28-4,[O-][N+](=O)c1ccc2oncc2c1,"hansch,c et al. (1995) ",1.46,7,4,2,3,0,0,0,0,0,0,,12,
[5-(phenylmethyl)furan-3-yl]methyl acetate,C14H14O3,039856-64-9,CC(=O)OCc1coc(Cc2ccccc2)c1,"hansch,c et al. (1995) ",3.24,14,14,0,3,0,0,0,0,0,0,,17,
"1,5-dimethylbenzimidazol-2-amine",C9H11N3,039860-12-3,Cn1c(N)nc2cc(C)ccc12,"hansch,c et al. (1995) ",1.47,9,11,3,0,0,0,0,0,0,0,,12,
n-methylthiophene-2-carboxamide,C6H7N1O1S1,039880-77-8,CNC(=O)c1sccc1,"yamagami,c & masaki,y (1995) ",0.84,6,7,1,1,1,0,0,0,0,0,,9,
4-hexoxyaniline,C12H19N1O1,039905-57-2,CCCCCCOc1ccc(N)cc1,"ramos,eu et al. (1998a) ",3.64,12,19,1,1,0,0,0,0,0,0,,14,
"3-(diethoxyphosphorylsulfanylmethyl)-1,2,3-benzotriazin-4-one",C12H16N3O4P1S1,039923-25-6,CCO[P](=O)(OCC)SCN1N=Nc2ccccc2C1=O,"hansch,c et al. (1995) ",1.63,12,16,3,4,1,1,0,0,0,0,,21,
3-methyl-2-nitroimidazole-4-carbaldehyde,C5H5N3O3,039928-74-0,Cn1c(C=O)cnc1[N+]([O-])=O,pomona (1987) ,-0.1,5,5,3,3,0,0,0,0,0,0,,11,
"3-(3-aminophenyl)-1,1-dimethylurea",C9H13N3O1,039938-79-9,CN(C)C(=O)Nc1cccc(N)c1,"hansch,c et al. (1995) ",-0.1,9,13,3,1,0,0,0,0,0,0,,13,
"1-(5-nitro-1,3-thiazol-2-yl)imidazolidine-2-thione",C6H6N4O2S2,040016-42-0,[O-][N+](=O)c1sc(nc1)N2CCNC2=S,sangster (1994) ,1.7,6,6,4,2,2,0,0,0,0,0,,14,
"2h-1-benzopyran-2-carboxylic acid, 6-chloro-2,3-",C10H9Cl1O3,040026-24-2,C1c2c(ccc(Cl)c2)OC(C(=O)(O))C1,sangster (1993) ,2.4,10,9,0,3,0,0,0,1,0,0,,14,
"benzene, 1,1'-oxybis-, tetrabromo deriv.",C12H6Br4O1,040088-47-9,Brc1ccc(Oc2ccc(Br)c(Br)c2Br)cc1,"sjodin,a et al. (2003) ",6.05,12,6,0,1,0,0,0,0,4,0,,17,
"pyridine, 4-heptyl-",C12H19N1,040089-90-5,CCCCCCCc1ccncc1,sangster (1993) ,5,12,19,1,0,0,0,0,0,0,0,,13,
"ethanamine, 1,1-dimethyl-n-[(4-methoxyphenyl)met",C12H17N1O2,040117-28-0,CC(C)(C)N(=O)=Cc1ccc(OC)cc1,"acree,we et al. (1984) ",1.21,12,17,1,2,0,0,0,0,0,0,,15,
"ethanamine, 1,1-dimethyl-n-[(4-methylphenyl)meth",C12H17N1O1,040117-29-1,Cc1ccc(C=N(=O)C(C)(C)C)cc1,"acree,we et al. (1984) ",1.74,12,17,1,1,0,0,0,0,0,0,,14,
"2,2',3,3',4,4',5,5',6-nonachlorobiphenyl",C12H1Cl9,040186-72-9,Clc1cc(c(Cl)c(Cl)c1Cl)c2c(Cl)c(Cl)c(Cl)c(Cl)c2Cl,biobyte (1995) ,9.14,12,1,0,0,0,0,0,9,0,0,,21,
7-phenylheptanoic acid,C13H18O2,040228-90-8,OC(=O)CCCCCCc1ccccc1,"hansch,c et al. (1995) ",3.63,13,18,0,2,0,0,0,0,0,0,,15,
6-dimethylaminopyrazine-2-carbonitrile,C7H8N4,040262-48-4,CN(C)c1cncc(n1)C#N,"yamagami,c et al. (1991) ",1.12,7,8,4,0,0,0,0,0,0,0,,11,
methyl 6-dimethylaminopyrazine-2-carboxylate,C8H11N3O2,040262-54-2,COC(=O)c1cncc(n1)N(C)C,"yamagami,c et al. (1991) ",0.9,8,11,3,2,0,0,0,0,0,0,,13,
9-oxoxanthene-2-carboxylic acid,C14H8O4,040274-67-7,OC(=O)c1ccc2Oc3ccccc3C(=O)c2c1,"hansch,c et al. (1995) ",3.12,14,8,0,4,0,0,0,0,0,0,,18,
2-methylsulfanylquinoline,C10H9N1S1,040279-26-3,CSc1ccc2ccccc2n1,"hansch,c et al. (1995) ",3.04,10,9,1,0,1,0,0,0,0,0,,12,
1-naphthalen-2-ylethanol,C12H12O1,040295-80-5,CC(O)c1ccc2ccccc2c1,sangster (1993) ,2.68,12,12,0,1,0,0,0,0,0,0,,13,
n-(3-methoxyphenyl)-2-piperidin-1-ylacetamide,C14H20N2O2,040297-47-0,COc1cccc(NC(=O)CN2CCCCC2)c1,sangster (1993) ,2.71,14,20,2,2,0,0,0,0,0,0,,18,
"1,2,3,7,8-pentachlorodibenzo-p-dioxin",C12H3Cl5O2,040321-76-4,Clc1cc2Oc3cc(Cl)c(Cl)c(Cl)c3Oc2cc1Cl,biobyte (1995) ,6.64,12,3,0,2,0,0,0,5,0,0,,19,
"2-(hydroxymethyl)-6-octoxyoxane-3,4,5-triol",C14H28O6,040427-75-6,CCCCCCCCOC1OC(CO)C(O)C(O)C1O,sangster (1994) ,1.46,14,28,0,6,0,0,0,0,0,0,,20,
"3,4-dimethyl-2,6-dinitro-n-pentan-3-ylaniline",C13H19N3O4,040487-42-1,CCC(CC)Nc1c(cc(C)c(C)c1[N+]([O-])=O)[N+]([O-])=O,"tomlin,c (1994) ",5.18,13,19,3,4,0,0,0,0,0,0,,20,
67bmethylenedesacetylthiospironolactone,C23H30O3,not,O4C(=O)CCC45CCC2C5(C)CCC1C6(C)CCC(=O)C=C6C3CC3C21,biobyte (1995) ,2.54,23,30,0,3,0,0,0,0,0,0,,26,
phenopylate,C11H11Cl2N1O2,040575-34-6,Clc1ccc(OC(=O)N2CCCC2)c(Cl)c1,"nandihalli,ub et al. (1993) ",3.94,11,11,1,2,0,0,0,2,0,0,,16,
"1,4,7,8-tetrachlorodibenzo-p-dioxin",C12H4Cl4O2,040581-94-0,Clc1cc2Oc3c(Cl)ccc(Cl)c3Oc2cc1Cl,biobyte (1995) ,6.39,12,4,0,2,0,0,0,4,0,0,,18,
methoprene,C19H34O3,040596-69-8,COC(C)(C)CCCC(C)C\C=C\C(C)=C\C(=O)OC(C)C,"hansch,c et al. (1995) ",5.5,19,34,0,3,0,0,0,0,0,0,,22,
methyl 5-methyl-1h-pyrrole-3-carboxylate,C7H9N1O2,040611-76-5,COC(=O)c1c[nH]c(C)c1,"hansch,c et al. (1995) ",1.96,7,9,1,2,0,0,0,0,0,0,,10,
"acetophenone, o-(2-ohet)amino",C10H13N1O2,040673-68-5,CC(=O)c1c(NCCO)cccc1,"hansch,c & leo,aj (1985) ",1.59,10,13,1,2,0,0,0,0,0,0,,13,
n-(dimethylamino-pyrrolidin-1-ylphosphoryl)-n-methylmethanamine,C8H20N3O1P1,040725-71-1,CN(C)[P](=O)(N(C)C)N1CCCC1,"debord,j & labadie,m (1985) ",0.82,8,20,3,1,0,1,0,0,0,0,,13,
pyrimidine-5-carbonitrile,C5H3N3,040805-79-6,N#Cc1cncnc1,"yamagami,c et al. (1994) ",-0.5,5,3,3,0,0,0,0,0,0,0,,8,
"1,4-benzdazepin-2-on-1-meome-5-ph-7amino",C17H17N3O2,040837-24-9,COCN1C(=O)CN=C(c3ccccc3)c2c1ccc(N)c2,"hansch,c & leo,aj (1985) ",1.32,17,17,3,2,0,0,0,0,0,0,,22,
"14-benzodiazp2-on,1-meome-5(2fph)-7am",C17H16F1N3O2,040837-34-1,COCN1C(=O)CN=C(c3c(F)cccc3)c2c1ccc(N)c2,"hansch,c & leo,aj (1985) ",1.31,17,16,3,2,0,0,1,0,0,0,,23,
diclofop,C15H12Cl2O4,040843-25-2,CC(Oc1ccc(Oc2ccc(Cl)cc2Cl)cc1)C(O)=O,"tomlin,c (1994) ",4.58,15,12,0,4,0,0,0,2,0,0,,21,
5-bromo-2-hydroxy-3-methylbenzamide,C8H8Br1N1O2,040912-73-0,Cc1cc(Br)cc(C(N)=O)c1O,sangster (1993) ,2.76,8,8,1,2,0,0,0,0,1,0,,12,
"5-bromo-2-hydroxy-n,3-dimethylbenzamide",C9H10Br1N1O2,040912-87-6,CNC(=O)c1cc(Br)cc(C)c1O,sangster (1993) ,3.51,9,10,1,2,0,0,0,0,1,0,,13,
5-bromo-n-ethyl-2-hydroxy-3-methylbenzamide,C10H12Br1N1O2,040912-88-7,CCNC(=O)c1cc(Br)cc(C)c1O,sangster (1993) ,3.61,10,12,1,2,0,0,0,0,1,0,,14,
5-bromo-n-butyl-2-hydroxy-3-methylbenzamide,C12H16Br1N1O2,040912-89-8,CCCCNC(=O)c1cc(Br)cc(C)c1O,sangster (1993) ,4.21,12,16,1,2,0,0,0,0,1,0,,16,
"4-[3,4-dihydroxy-5-(hydroxymethyl)oxolan-2-yl]-1-oxido-1,2,4-triazin-1-ium-3-one",C8H11N3O6,040919-33-3,OCC1OC(C(O)C1O)N2C=C[N+](=NC2=O)[O-],"hansch,c et al. (1995) ",-2.43,8,11,3,6,0,0,0,0,0,0,,17,
pyrimidine-5-carboxamide,C5H5N3O1,040929-49-5,NC(=O)c1cncnc1,"yamagami,c et al. (1990) ",-0.92,5,5,3,1,0,0,0,0,0,0,,9,
ethyl pyrimidine-5-carboxylate,C7H8N2O2,040929-50-8,CCOC(=O)c1cncnc1,"yamagami,c et al. (1990) ",0.52,7,8,2,2,0,0,0,0,0,0,,11,
n-(3-dimethylaminopropyl)benzamide,C12H18N2O1,040948-30-9,CN(C)CCCNC(=O)c1ccccc1,"hansch,c et al. (1995) ",1.27,12,18,2,1,0,0,0,0,0,0,,15,
3-pyridin-3-ylpropan-1-amine,C8H12N2,041038-69-1,NCCCc1cccnc1,"hansch,c et al. (1995) ",0.44,8,12,2,0,0,0,0,0,0,0,,10,
"1h-purine-2,6-dione, 3,9-dihydro-3-ethyl-",C7H8N4O2,041078-01-7,CCN1C(=O)NC(=O)c2nc[nH]c12,sangster (1993) ,-0.11,7,8,4,2,0,0,0,0,0,0,,13,
"1h-purine-2,6-dione, 3,9-dihydro-3-propyl-",C8H10N4O2,041078-02-8,CCCN1C(=O)NC(=O)c2nc[nH]c12,sangster (1993) ,0.33,8,10,4,2,0,0,0,0,0,0,,14,
"1h-purine-2,6-dione, 3,9-dihydro-3-butyl-",C9H12N4O2,041078-03-9,CCCCN1C(=O)NC(=O)c2nc[nH]c12,sangster (1993) ,0.84,9,12,4,2,0,0,0,0,0,0,,15,
3-ethyladamantan-1-amine,C12H21N1,041100-45-2,CCC12CC3CC(CC(N)(C3)C1)C2,"hansch,c et al. (1995) ",3.4,12,21,1,0,0,0,0,0,0,0,,13,
"1-[4-fluoro-5-(hydroxymethyl)oxolan-2-yl]pyrimidine-2,4-dione",C9H11F1N2O4,041107-56-6,OCC1OC(CC1F)N2C=CC(=O)NC2=O,"balzarini,jm et al. (1989) ",-0.49,9,11,2,4,0,0,1,0,0,0,,16,
methyl 5-methylpyrazine-2-carboxylate,C7H8N2O2,041110-33-2,COC(=O)c1cnc(C)cn1,"yamagami,c et al. (1991) ",0.17,7,8,2,2,0,0,0,0,0,0,,11,
ethyl 5-methylpyrazine-2-carboxylate,C8H10N2O2,041110-34-3,CCOC(=O)c1cnc(C)cn1,"yamagami,c et al. (1991) ",0.61,8,10,2,2,0,0,0,0,0,0,,12,
methyl 6-methylpyrazine-2-carboxylate,C7H8N2O2,041110-38-7,COC(=O)c1cncc(C)n1,"yamagami,c et al. (1991) ",0.1,7,8,2,2,0,0,0,0,0,0,,11,
ethyl 6-methylpyrazine-2-carboxylate,C8H10N2O2,041110-39-8,CCOC(=O)c1cncc(C)n1,"yamagami,c et al. (1991) ",0.51,8,10,2,2,0,0,0,0,0,0,,12,
"1-(4-bromophenyl)pyrrolidine-2,5-dione",C10H8Br1N1O2,041167-74-2,Brc1ccc(cc1)N2C(=O)CCC2=O,"hansch,c et al. (1995) ",1.18,10,8,1,2,0,0,0,0,1,0,,14,
profenofos,C11H15Br1Cl1O3P1S1,041198-08-7,CCCS[P](=O)(OCC)Oc1ccc(Br)cc1Cl,"hansch,c et al. (1995) ",4.68,11,15,0,3,1,1,0,1,1,0,,18,
sparticide,C10H4Cl2F1N1O2,041205-21-4,c1c(F)ccc(N2C(=O)C(Cl)=C(Cl)C2(=O))c1,"tomlin,c (1994) ",2.3,10,4,1,2,0,0,1,2,0,0,,16,
4-piperidin-1-ylquinazoline,C13H15N3,041229-10-1,C1CCN(CC1)c2ncnc3ccccc23,"hansch,c et al. (1995) ",2.92,13,15,3,0,0,0,0,0,0,0,,16,
"4-amino-3-methyl-6-phenyl-1,2,4-triazin-5-one",C10H10N4O1,041394-05-2,CC1=NN=C(c2ccccc2)C(=O)N1N,"kaune,a et al. (1995) ",0.83,10,10,4,1,0,0,0,0,0,0,,15,
"2,3,3',4,5,6-hexachlorobiphenyl",C12H4Cl6,041411-62-5,Clc1cccc(c1)c2c(Cl)c(Cl)c(Cl)c(Cl)c2Cl,biobyte (1995) ,7.3,12,4,0,0,0,0,0,6,0,0,,18,
"2,3,4,4',5,6-hexachlorobiphenyl",C12H4Cl6,041411-63-6,Clc1ccc(cc1)c2c(Cl)c(Cl)c(Cl)c(Cl)c2Cl,biobyte (1995) ,7.31,12,4,0,0,0,0,0,6,0,0,,18,
"2,2',3,5'-tetrachlorobiphenyl",C12H6Cl4,041464-39-5,Clc1ccc(Cl)c(c1)c2cccc(Cl)c2Cl,biobyte (1995) ,5.81,12,6,0,0,0,0,0,4,0,0,,16,
"2,2',4,5'-tetrachlorobiphenyl",C12H6Cl4,041464-40-8,Clc1ccc(c(Cl)c1)c2cc(Cl)ccc2Cl,"hansch,c et al. (1995) ",6.22,12,6,0,0,0,0,0,4,0,0,,16,
"1,1'-biphenyl, 2,3,3',5'-tetrachloro-",C12H6Cl4,041464-49-7,Clc1cc(Cl)cc(c1)c2cccc(Cl)c2Cl,biobyte (1995) ,6.17,12,6,0,0,0,0,0,4,0,0,,16,
"2,2',3',4,5-pentachlorobiphenyl",C12H5Cl5,041464-51-1,Clc1cccc(c1Cl)c2cc(Cl)c(Cl)cc2Cl,"hansch,c et al. (1995) ",6.67,12,5,0,0,0,0,0,5,0,0,,17,
"(5-butyl-2-ethylamino-6-methylpyrimidin-4-yl) n,n-dimethylsulfamate",C13H24N4O3S1,041483-43-6,CCCCc1c(C)nc(NCC)nc1O[S](=O)(=O)N(C)C,"hansch,c et al. (1995) ",2.7,13,24,4,3,1,0,0,0,0,0,,21,
2-methoxyethoxybenzene,C9H12O2,041532-81-4,COCCOc1ccccc1,"hansch,c et al. (1995) ",1.73,9,12,0,2,0,0,0,0,0,0,,11,
"pyrazine-2,6-diamine",C4H6N4,041536-80-5,Nc1cncc(N)n1,"yamagami,c et al. (1991) ",-0.45,4,6,4,0,0,0,0,0,0,0,,8,
pdsp2_001625,C15H25N1O2,041538-42-5,COc1cc(c(OC)cc1CC(C)N)C(C)(C)C,"hansch,c et al. (1995) ",3.91,15,25,1,2,0,0,0,0,0,0,,18,
ethyl 2-naphthalen-1-yloxyacetate,C14H14O3,041643-81-6,CCOC(=O)COc1cccc2ccccc12,"chamberlain,k et al. (1986) ",2.9,14,14,0,3,0,0,0,0,0,0,,17,
"2-amino-n-(2,6-dimethylphenyl)propanamide",C11H16N2O1,041708-72-9,CC(N)C(=O)Nc1c(C)cccc1C,sangster (1993) ,0.76,11,16,2,1,0,0,0,0,0,0,,14,
n-[(4-hydroxyphenyl)methyl]benzamide,C14H13N1O2,041859-85-2,Oc1ccc(CNC(=O)c2ccccc2)cc1,"hansch,c et al. (1995) ",1.87,14,13,1,2,0,0,0,0,0,0,,17,
8-(4-cl-ph)-s cyclic amp,C16H15Cl1N5O6P1S1,041941-66-6,n1(C4C(O)C3OP(=O)(O)OCC3O4)c(Sc5ccc(Cl)cc5)nc2c(N)ncnc12,"korth,m & engels,j (1987) ",-0.98,16,15,5,6,1,1,0,1,0,0,,30,
"2-propenoic acid, 3-phenoxy-",C9H8O3,042103-65-1,OC(=O)C=COc1ccccc1,sangster (1993) ,2.27,9,8,0,3,0,0,0,0,0,0,,12,
o-methyl [2-(2-methyl-5-nitroimidazol-1-yl)ethylamino]methanethioate,C8H12N4O3S1,042116-76-7,COC(=S)NCCn1c(C)ncc1[N+]([O-])=O,"hansch,c et al. (1995) ",1.15,8,12,4,3,1,0,0,0,0,0,,16,
2-chloro-6-ethoxypyridine,C7H8Cl1N1O1,042144-78-5,CCOc1cccc(Cl)n1,"hansch,c et al. (1995) ",2.55,7,8,1,1,0,0,0,1,0,0,,10,
n-(phenylmethyl)-2-pyrrolidin-1-ylacetamide,C13H18N2O1,042175-93-9,O=C(CN1CCCC1)NCc2ccccc2,sangster (1993) ,1.69,13,18,2,1,0,0,0,0,0,0,,16,
"5-[3-(tert-butylamino)-2-hydroxypropoxy]-1,2,3,4-tetrahydronaphthalene-2,3-diol",C17H27N1O4,042200-33-9,CC(C)(C)NCC(O)COc1cccc2CC(O)C(O)Cc12,sangster (1994) ,0.81,17,27,1,4,0,0,0,0,0,0,,22,
"1-(1,3-thiazol-2-yl)piperazine",C7H11N3S1,042270-37-1,C1CN(CCN1)c2sccn2,"caccia,s et al. (1985) ",0.61,7,11,3,0,1,0,0,0,0,0,,11,
2-(4-methylsulfonylphenoxy)acetic acid,C9H10O5S1,042288-41-5,C[S](=O)(=O)c1ccc(OCC(O)=O)cc1,sangster (1994) ,0.06,9,10,0,5,1,0,0,0,0,0,,15,
ethyl quinolin-8-yl carbonate,C12H11N1O3,042322-29-2,CCOC(=O)Oc1cccc2cccnc12,"hansch,c et al. (1995) ",1.73,12,11,1,3,0,0,0,0,0,0,,16,
3-methyl-4-piperidin-1-ylbutan-2-one,C10H19N1O1,042327-99-1,CC(CN1CCCCC1)C(C)=O,sangster (1993) ,1.28,10,19,1,1,0,0,0,0,0,0,,12,
1-methyl-5-oxopyrrolidine-3-carboxylic acid,C6H9N1O3,042346-68-9,CN1CC(CC1=O)C(O)=O,"sasaki,h et al. (1988) ",-1.5,6,9,1,3,0,0,0,0,0,0,,10,
n-quinolin-5-ylacetamide,C11H10N2O1,042464-80-2,CC(=O)Nc1cccc2ncccc12,"hansch,c et al. (1995) ",0.71,11,10,2,1,0,0,0,0,0,0,,14,
1-(2-amino-4-methoxyphenyl)ethanone,C9H11N1O2,042465-53-2,COc1ccc(C(C)=O)c(N)c1,pomona (1987) ,1.76,9,11,1,2,0,0,0,0,0,0,,12,
nimustine,C9H13Cl1N6O2,042471-28-3,Cc1ncc(CNC(=O)N(CCCl)N=O)c(N)n1,"hansch,c et al. (1995) ",0.39,9,13,6,2,0,0,0,1,0,0,,18,
isazofos,C9H17Cl1N3O3P1S1,042509-80-8,CCO[P](=S)(OCC)Oc1nn(C(C)C)c(Cl)n1,"hansch,c et al. (1995) ",3.82,9,17,3,3,1,1,0,1,0,0,,18,
"1-(1,3-benzodioxol-5-yl)-n-methylpropan-2-amine",C11H15N1O2,042542-10-9,CNC(C)Cc1ccc2OCOc2c1,biobyte starlist (2009) ,2.15,11,15,1,2,0,0,0,0,0,0,,14,
4-(hydroxy-methylamino)diazenylbenzamide,C8H10N4O2,042548-73-2,CN(O)N=Nc1ccc(cc1)C(N)=O,"hansch,c et al. (1995) ",-0.22,8,10,4,2,0,0,0,0,0,0,,14,
tran-1no-1(clet)-3(4cooh cyhexyl)urea,C10H16Cl1N3O4,042558-94-1,ClCCN(C(=O)NC1CCC(C(=O)O)CC1)N=O,"hansch,c et al. (1995) ",1.53,10,16,3,4,0,0,0,1,0,0,,18,
"2-methyl-5-(phenylmethylsulfanyl)-1,3,4-thiadiazole",C10H10N2S2,042755-32-8,Cc1sc(SCc2ccccc2)nn1,pomona (1987) ,2.35,10,10,2,0,2,0,0,0,0,0,,14,
143984-63-8,C14H12F1N1O3,042835-25-6,CC1CCc2cc(F)cc3C(=O)C(=CN1c23)C(O)=O,"takacs-novak,k 1995 (in press) ",1.6,14,12,1,3,0,0,1,0,0,0,,19,
pyrimidine-4-carbonitrile,C5H3N3,042839-04-3,N#Cc1ccncn1,"yamagami,c et al. (1990) ",-0.08,5,3,3,0,0,0,0,0,0,0,,8,
ethyl pyrimidine-2-carboxylate,C7H8N2O2,042839-08-7,CCOC(=O)c1ncccn1,"yamagami,c et al. (1990) ",-0.31,7,8,2,2,0,0,0,0,0,0,,11,
"3-(3-acetylphenyl)-1,1-dimethylurea",C11H14N2O2,042865-65-6,CN(C)C(=O)Nc1cccc(c1)C(C)=O,"hansch,c et al. (1995) ",0.95,11,14,2,2,0,0,0,0,0,0,,15,
nitrofluorfen,C13H7Cl1F3N1O3,042874-01-1,[O-][N+](=O)c1ccc(Oc2ccc(cc2Cl)C(F)(F)F)cc1,"nandihalli,ub et al. (1993) ",4.54,13,7,1,3,0,0,3,1,0,0,,21,
oxyfluorfen,C15H11Cl1F3N1O4,042874-03-3,CCOc1cc(Oc2ccc(cc2Cl)C(F)(F)F)ccc1[N+]([O-])=O,"nandihalli,ub et al. (1993) ",4.73,15,11,1,4,0,0,3,1,0,0,,24,
4-(6-methoxynaphthalen-2-yl)butan-2-one,C15H16O2,042924-53-8,COc1ccc2cc(CCC(C)=O)ccc2c1,"adlard,m et al. (1995) ",3.08,15,16,0,2,0,0,0,0,0,0,,17,
"2-propenoic acid, 3-phenoxy-, ethyl ester",C11H12O3,043013-70-3,CCOC(=O)C=COc1ccccc1,sangster (1993) ,3.18,11,12,0,3,0,0,0,0,0,0,,14,
1-methoxy-3-methylsulfonylbenzene,C8H10O3S1,043032-67-3,COc1cccc(c1)[S](C)(=O)=O,"hansch,c et al. (1995) ",0.76,8,10,0,3,1,0,0,0,0,0,,12,
triadimefon,C14H16Cl1N3O2,043121-43-3,CC(C)(C)C(=O)C(Oc1ccc(Cl)cc1)n2cncn2,"hansch,c et al. (1995) ",2.77,14,16,3,2,0,0,0,1,0,0,,20,
"diethyl 2-[[4-[(2,4-diaminopteridin-6-yl)methyl-methylamino]benzoyl]amino]pentanedioate",C24H30N8O5,043170-88-3,CCOC(=O)CCC(NC(=O)c1ccc(cc1)N(C)Cc2cnc3nc(N)nc(N)c3n2)C(=O)OCC,sangster (1993) ,0.98,24,30,8,5,0,0,0,0,0,0,,37,
"2-imidazo[1,2-a]pyridin-2-ylethanamine",C9H11N3,043170-96-3,NCCc1cn2ccccc2n1,sangster (1994) ,0.59,9,11,3,0,0,0,0,0,0,0,,12,
n-pyrimidin-5-ylacetamide,C6H7N3O1,045810-14-8,CC(=O)Nc1cncnc1,"yamagami,c et al. (1990) ",-0.22,6,7,3,1,0,0,0,0,0,0,,10,
4-tert-butyl-1-nitrosopiperidine,C9H18N2O1,046061-25-0,CC(C)(C)C1CCN(CC1)N=O,"hansch,c et al. (1995) ",2.54,9,18,2,1,0,0,0,0,0,0,,12,
3-methyl-1-phenylbutan-2-amine,C11H17N1,046114-16-3,CC(C)C(N)Cc1ccccc1,"hansch,c et al. (1995) ",2.59,11,17,1,0,0,0,0,0,0,0,,12,
"1,2,4-triazole,1-(4-chlorobenzyl)-",C9H8Cl1N3,046209-39-6,Clc1ccc(Cn2ncnc2)cc1,"patil,sg et al. (1988) ",1.84,9,8,3,0,0,0,0,1,0,0,,13,
n-(3-morpholin-4-ylpropyl)prop-2-enamide,C10H18N2O2,046348-76-9,C=CC(=O)NCCCN1CCOCC1,"chiari,m et al. (1991) ",-0.53,10,18,2,2,0,0,0,0,0,0,,14,
1-(tert-butylamino)-3-(2-prop-2-ynoxyphenoxy)propan-2-ol,C16H23N1O3,047082-97-3,CC(C)(C)NCC(O)COc1ccccc1OCC#C,"recanatini,m (1992) ",2.32,16,23,1,3,0,0,0,0,0,0,,20,
"5-[3-(tert-butylamino)-2-hydroxypropoxy]-3,4-dihydro-2h-naphthalen-1-one",C17H25N1O3,047141-42-4,CC(C)(C)NCC(O)COc1cccc2C(=O)CCCc12,"hansch,c et al. (1995) ",2.4,17,25,1,3,0,0,0,0,0,0,,21,
(4-isothiocyanatophenyl) benzoate,C14H9N1O2S1,049540-85-4,O=C(Oc1ccc(cc1)N=C=S)c2ccccc2,"hansch,c et al. (1995) ",4.9,14,9,1,2,1,0,0,0,0,0,,18,
"3-furan-2-yl-n,n-dimethylpropan-1-amine",C9H15N1O1,049547-83-3,CN(C)CCCc1occc1,"hansch,c et al. (1995) ",2.08,9,15,1,1,0,0,0,0,0,0,,11,
"2h-1,4-benzodiazepin-2-one, 7-chloro-5-(2-fluoro",C17H11Cl1F4N2O1,049606-44-2,Clc1ccc2c(C(c3ccccc3F)=NCC(=O)N2CC(F)(F)F)c1,sangster (1994) ,3.36,17,11,2,1,0,0,4,1,0,0,,25,
"4-ethylsulfonyl-3-methyl-2-oxido-1,2,5-oxadiazol-2-ium",C5H8N2O4S1,049739-38-0,CC[S](=O)(=O)c1no[n+]([O-])c1C,"calvino,r et al. (1992) ",0.65,5,8,2,4,1,0,0,0,0,0,,12,
"3-ethylsulfonyl-4-methyl-1,2,5-oxadiazole",C5H8N2O3S1,049739-39-1,CC[S](=O)(=O)c1nonc1C,"calvino,r et al. (1992) ",0.92,5,8,2,3,1,0,0,0,0,0,,11,
"3-methyl-4-phenylsulfonyl-1,2,5-oxadiazole",C9H8N2O3S1,049739-42-6,Cc1nonc1[S](=O)(=O)c2ccccc2,"calvino,r et al. (1992) ",2.36,9,8,2,3,1,0,0,0,0,0,,15,
"5-[(3,5-dimethoxy-4-methylphenyl)methyl]pyrimidine-2,4-diamine",C14H18N4O2,049845-48-9,COc1cc(Cc2cnc(N)nc2N)cc(OC)c1C,"hansch,c & leo,aj (1985) ",2.14,14,18,4,2,0,0,0,0,0,0,,20,
"tetrahydro-1,2-benzodithiol-3-one",C7H8O1S2,050267-50-0,O=C1SSC2=CCCCC12,"bona,m et al. (1995) ",2.4,7,8,0,1,2,0,0,0,0,0,,10,
"3-methyl-4-phenylsulfanyl-1,2,5-oxadiazole",C9H8N2O1S1,050275-23-5,Cc1nonc1Sc2ccccc2,"calvino,r et al. (1992) ",2.92,9,8,2,1,1,0,0,0,0,0,,13,
"1,1,3-triethyl-3-nitrosourea",C7H15N3O2,050285-70-6,CCN(CC)C(=O)N(CC)N=O,"hansch,c et al. (1995) ",1.54,7,15,3,2,0,0,0,0,0,0,,12,
"3-ethyl-1,1-dimethyl-3-nitrosourea",C5H11N3O2,050285-71-7,CCN(N=O)C(=O)N(C)C,"hansch,c et al. (1995) ",0.71,5,11,3,2,0,0,0,0,0,0,,10,
"1,1-diethyl-3-methyl-3-nitrosourea",C6H13N3O2,050285-72-8,CCN(CC)C(=O)N(C)N=O,"hansch,c et al. (1995) ",1.11,6,13,3,2,0,0,0,0,0,0,,11,
1-benzofuran-2-carboxamide,C9H7N1O2,050342-50-2,NC(=O)c1oc2ccccc2c1,biobyte (1995) ,1.54,9,7,1,2,0,0,0,0,0,0,,12,
"2,3,6-trichloroanisole",C7H5Cl3O1,050375-10-5,COc1c(Cl)ccc(Cl)c1Cl,"opperhuizen,a & voors,pi (1987) ",3.64,7,5,0,1,0,0,0,3,0,0,,11,
preg4ene-11b-epoxy-3oxo-g-lactone,C22H28O4,not,CC12C64OC6CC3(C)C5(OC(=O)CC5)CCC3C4CCC1=CC(=O)CC2,"hansch,c et al. (1995) ",1.89,22,28,0,4,0,0,0,0,0,0,,26,
methyl 2-(4-bromophenyl)sulfonylacetate,C9H9Br1O4S1,050397-65-4,COC(=O)C[S](=O)(=O)c1ccc(Br)cc1,"he,y et al. (1995b) ",1.52,9,9,0,4,1,0,0,0,1,0,,15,
3-[4-(phenylmethoxy)phenyl]propanoic acid,C16H16O3,050463-48-4,OC(=O)CCc1ccc(OCc2ccccc2)cc1,sangster (1994) ,3.31,16,16,0,3,0,0,0,0,0,0,,19,
vinclozolin,C12H9Cl2N1O3,050471-44-8,CC1(OC(=O)N(C1=O)c2cc(Cl)cc(Cl)c2)C=C,"hansch,c et al. (1995) ",3.1,12,9,1,3,0,0,0,2,0,0,,18,
"dipropan-2-yl 2-(1,3-dithiolan-2-ylidene)propanedioate",C12H18O4S2,050512-35-1,CC(C)OC(=O)C(C(=O)OC(C)C)=C1SCCS1,"saito,h et al. (1993) ",2.88,12,18,0,4,2,0,0,0,0,0,,18,
"2-piperidinone, 1-nitroso-",C5H8N2O2,050550-65-7,O=NN1CCCCC1=O,pomona (1987) ,-1.05,5,8,2,2,0,0,0,0,0,0,,9,
dimethachlor,C13H18Cl1N1O2,050563-36-5,COCCN(C(=O)CCl)c1c(C)cccc1C,"tomlin,c (1997) ",2.17,13,18,1,2,0,0,0,1,0,0,,17,
"fluoromethanesulfonanilide,p-cl",C7H7Cl1F1N1O2S1,050585-76-7,c1c(Cl)ccc(NS(=O)(=O)CF)c1,"hansch,c et al. (1995) ",2.25,7,7,1,2,1,0,1,1,0,0,,13,
"cf3-sulfonanilide, p-phenyl",C13H10F3N1O2S1,050585-77-8,c1ccc(c2ccc(NS(=O)(=O)C(F)(F)F)cc2)cc1,"hansch,c et al. (1995) ",4.97,13,10,1,2,1,0,3,0,0,0,,20,
"(3,5-dimethyl-4-nitrophenoxy)-dimethoxy-sulfanylidenephosphorane",C10H14N1O5P1S1,050590-05-1,CO[P](=S)(OC)Oc1cc(C)c(c(C)c1)[N+]([O-])=O,"hansch,c et al. (1995) ",3.89,10,14,1,5,1,1,0,0,0,0,,18,
"(3,5-dimethyl-4-nitrophenyl) dimethyl phosphate",C10H14N1O6P1,050590-06-2,CO[P](=O)(OC)Oc1cc(C)c(c(C)c1)[N+]([O-])=O,"hansch,c & leo,aj (1985) ",2.57,10,14,1,6,0,1,0,0,0,0,,18,
acifluorfen,C14H7Cl1F3N1O5,050594-66-6,OC(=O)c1cc(Oc2ccc(cc2Cl)C(F)(F)F)ccc1[N+]([O-])=O,nandihalli ub et al. (1992) ,3.7,14,7,1,5,0,0,3,1,0,0,,24,
"2-heptylsulfanyl-6-(hydroxymethyl)oxane-3,4,5-triol",C13H26O5S1,050615-69-5,CCCCCCCSC1OC(CO)C(O)C(O)C1O,sangster (1994) ,1.5,13,26,0,5,1,0,0,0,0,0,,19,