Names,Formula,CAS No,SMILES,Reference,Exp logp,C,H,N,O,S,P,F,Cl,Br,I,,,
"benzene-1,3-disulfonamide",C6H8N2O4S2,003701-01-7,N[S](=O)(=O)c1cccc(c1)[S](N)(=O)=O,"hansch,c et al. (1995) ",-0.55,6,8,2,4,2,0,0,0,0,0,,14,
"estr-4-en-3-one, 17-hydroxy-7,17-dimethyl-, (7al",C20H30O2,003704-09-4,C42CCC(C)(O)C4(C)CCC1C3CCC(=O)C=C3CC(C)C21,sangster (1993) ,3.19,20,30,0,2,0,0,0,0,0,0,,22,
"3(2h)-pyridazinone, 4-chloro-5-(dimethylamino)-2",C12H12Cl1N3O1,003707-98-0,O=C1N(c2ccccc2)N=CC(N(C)C)=C1Cl,"braumann,t & grimme,lh (1981) ",1.55,12,12,3,1,0,0,0,1,0,0,,17,
"n,n-diethylhydroxylamine",C4H11N1O1,003710-84-7,CCN(O)CC,citi (2007) ,-0.17,4,11,1,1,0,0,0,0,0,0,,6,
2-pyridin-3-ylacetamide,C7H8N2O1,003724-16-1,NC(=O)Cc1cccnc1,"hansch,c et al. (1995) ",-0.71,7,8,2,1,0,0,0,0,0,0,,10,
crotonic acid,C4H6O2,003724-65-0,C/C=C/C(O)=O,"hansch,c et al. (1995) ",0.72,4,6,0,2,0,0,0,0,0,0,,6,
pyridin-2-ylmethanamine,C6H8N2,003731-51-9,NCc1ccccn1,"hansch,c et al. (1995) ",-0.21,6,8,2,0,0,0,0,0,0,0,,8,
pyridin-3-ylmethanamine,C6H8N2,003731-52-0,NCc1cccnc1,"hansch,c et al. (1995) ",-0.32,6,8,2,0,0,0,0,0,0,0,,8,
pyridin-4-ylmethanamine,C6H8N2,003731-53-1,NCc1ccncc1,"hansch,c et al. (1995) ",-0.38,6,8,2,0,0,0,0,0,0,0,,8,
chlordene,C10H6Cl6,003734-48-3,ClC1=C(Cl)C2(Cl)C3C=CCC3C1(Cl)C2(Cl)Cl,"simpson,cd et al. (1995) ",5.57,10,6,0,0,0,0,0,6,0,0,,16,
trans-nonachlor,C10H5Cl9,039765-80-5,ClC1C(Cl)C2C(C1Cl)C3(Cl)C(=C(Cl)C2(Cl)C3(Cl)Cl)Cl,"simpson,cd et al. (1995) ",6.35,10,5,0,0,0,0,0,9,0,0,,19,
4-diethoxyphosphinothioyloxyaniline,C10H16N1O3P1S1,003735-01-1,CCO[P](=S)(OCC)Oc1ccc(N)cc1,"hansch,c et al. (1995) ",2.6,10,16,1,3,1,1,0,0,0,0,,16,
diloxanide furoate,C14H11Cl2N1O4,003736-81-0,CN(C(=O)C(Cl)Cl)c1ccc(OC(=O)c2occc2)cc1,"dutta,h et al. (1988) ",2.24,14,11,1,4,0,0,0,2,0,0,,21,
4-(di(propan-2-yl)amino)-2-phenyl-2-pyridin-2-ylbutanamide,C21H29N3O1,003737-09-5,CC(C)N(CCC(C(N)=O)(c1ccccc1)c2ccccn2)C(C)C,"mannhold,r et al. (1993) ",2.58,21,29,3,1,0,0,0,0,0,0,,25,
3-(phenoxy)benzoic acid,C13H10O3,003739-38-6,OC(=O)c1cccc(Oc2ccccc2)c1,"hansch,c et al. (1995) ",3.91,13,10,0,3,0,0,0,0,0,0,,16,
"pyrimidine, 2-ethoxy-",C6H8N2O1,003739-82-0,CCOc1ncccn1,"yamagami,c et al. (1990) ",0.74,6,8,2,1,0,0,0,0,0,0,,9,
fenclorim,C10H6Cl2N2,003740-92-9,Clc1cc(Cl)nc(n1)c2ccccc2,"hansch,c et al. (1995) ",4.17,10,6,2,0,0,0,0,2,0,0,,14,
2-benzamido-5-methylphenol,C14H13N1O2,003743-11-1,Cc1ccc(NC(=O)c2ccccc2)c(O)c1,"hansch,c et al. (1995) ",3.08,14,13,1,2,0,0,0,0,0,0,,17,
2-methylpyridine-4-carbohydrazide,C7H9N3O1,003758-59-6,Cc1cc(ccn1)C(=O)NN,"hansch,c et al. (1995) ",-0.37,7,9,3,1,0,0,0,0,0,0,,11,
"3-phenyl-1,3-oxazolidine-2,4-dione",C9H7N1O3,003759-90-8,O=C1COC(=O)N1c2ccccc2,sangster (1994) ,0.93,9,7,1,3,0,0,0,0,0,0,,13,
pyrrolidine-1-carbaldehyde,C5H9N1O1,003760-54-1,O=CN1CCCC1,"hansch,c et al. (1995) ",-0.32,5,9,1,1,0,0,0,0,0,0,,7,
4-amino-n-(2-diethylaminoethyl)-2-methoxybenzamide,C14H23N3O2,003761-48-6,CCN(CC)CCNC(=O)c1ccc(N)cc1OC,sangster (1993) ,1.4,14,23,3,2,0,0,0,0,0,0,,19,
buturon,C12H13Cl1N2O1,003766-60-7,CC(C#C)N(C)C(=O)Nc1ccc(Cl)cc1,"hansch,c et al. (1995) ",3,12,13,2,1,0,0,0,1,0,0,,16,
(2-butan-2-ylphenyl) n-methylcarbamate,C12H17N1O2,003766-81-2,CCC(C)c1ccccc1OC(=O)NC,"hansch,c et al. (1995) ",2.78,12,17,1,2,0,0,0,0,0,0,,15,
disperse red 5,C17H19Cl1N4O4,003769-57-1,Cc2cc(N(CCO)CCO)ccc2N=Nc1ccc(N(=O)(=O))cc1Cl,"baughman,gl & weber,ej (1991) ",4.3,17,19,4,4,0,0,0,1,0,0,,26,
ethyl 1h-indole-2-carboxylate,C11H11N1O2,003770-50-1,CCOC(=O)c1[nH]c2ccccc2c1,"yamagami,c et al. (1994) ",3.22,11,11,1,2,0,0,0,0,0,0,,14,
4-hydroxynaphthalene-2-sulfonic acid,C10H8O4S1,003771-14-0,Oc1cc(cc2ccccc12)[S](O)(=O)=O,"hansch,c et al. (1995) ",-0.18,10,8,0,4,1,0,0,0,0,0,,15,
4-amino-n-(6-methoxy-2-methylpyrimidin-4-yl)benzenesulfonamide,C12H14N4O3S1,003772-76-7,COc1cc(N[S](=O)(=O)c2ccc(N)cc2)nc(C)n1,"hansch,c et al. (1995) ",0.61,12,14,4,3,1,0,0,0,0,0,,20,
"1,3,4-oxadiazol-2-amine",C2H3N3O1,003775-60-8,Nc1ocnn1,"hansch,c et al. (1995) ",-1.44,2,3,3,1,0,0,0,0,0,0,,6,
"5-ethyl-1,3,4-oxadiazol-2-amine",C4H7N3O1,003775-61-9,CCc1oc(N)nn1,"hansch,c et al. (1995) ",-0.3,4,7,3,1,0,0,0,0,0,0,,8,
ifosfamide,C7H15Cl2N2O2P1,003778-73-2,ClCCN[P]1(=O)OCCCN1CCCl,"hansch,c et al. (1995) ",0.86,7,15,2,2,0,1,0,2,0,0,,14,
"(17-acetyl-9-fluoro-11-hydroxy-6,10,13-trimethyl-3-oxo-6,7,8,11,12,14,15,16-octahydrocyclopenta[a]phenanthren-17-yl) acetate",C24H31F1O5,003801-06-7,CC1CC2C3CCC(OC(C)=O)(C(C)=O)C3(C)CC(O)C2(F)C4(C)C=CC(=O)C=C14,"hansch,c et al. (1995) ",1.5,24,31,0,5,0,0,1,0,0,0,,30,
"8-methoxy-8-sulfanylidene-7,9-dioxa-8$l^{5}-phosphabicyclo[4.4.0]deca-1,3,5-triene",C8H9O3P1S1,003811-49-2,CO[P]1(=S)OCc2ccccc2O1,"hansch,c et al. (1995) ",2.67,8,9,0,3,1,1,0,0,0,0,,13,
benazolin,C9H6Cl1N1O3S1,003813-05-6,OC(=O)CN1C(=O)Sc2cccc(Cl)c12,"tomlin,c (1997) ",1.34,9,6,1,3,1,0,0,1,0,0,,15,
n-propan-2-yl-n-prop-2-enylacetamide,C8H15N1O1,003829-78-5,CC(C)N(CC=C)C(C)=O,"hansch,c et al. (1995) ",1.14,8,15,1,1,0,0,0,0,0,0,,10,
4-methylquinolin-8-ol,C10H9N1O1,003846-73-9,Cc1ccnc2c(O)cccc12,"hansch,c et al. (1995) ",2.41,10,9,1,1,0,0,0,0,0,0,,12,
p-chlorobenzaldoxime,C7H6Cl1N1O1,003848-36-0,O/N=C/c1ccc(Cl)cc1,"hansch,c et al. (1995) ",2.67,7,6,1,1,0,0,0,1,0,0,,10,
"2-methylpropyl 3,4,5-trihydroxybenzoate",C11H14O5,003856-05-1,CC(C)COC(=O)c1cc(O)c(O)c(O)c1,"hansch,c et al. (1995) ",2.46,11,14,0,5,0,0,0,0,0,0,,16,
4-aminobenzenecarboximidamide,C7H9N3,003858-83-1,NC(=N)c1ccc(N)cc1,"hansch,c et al. (1995) ",-0.37,7,9,3,0,0,0,0,0,0,0,,10,
"(2,6-dibromo-4-cyanophenyl) butanoate",C11H9Br2N1O2,003861-41-4,CCCC(=O)Oc1c(Br)cc(cc1Br)C#N,usda pesticide properties database ,3.94,11,9,1,2,0,0,0,0,2,0,,16,
2-furan-2-yl-1h-benzimidazole,C11H8N2O1,003878-19-1,[nH]1c2ccccc2nc1c3occc3,"tomlin,c (1994) ",2.67,11,8,2,1,0,0,0,0,0,0,,14,
"(1,2,4,5-tetraacetyloxy-6-oxohexan-3-yl) acetate",C16H22O11,003891-59-6,CC(=O)OCC(OC(C)=O)C(OC(C)=O)C(OC(C)=O)C(OC(C)=O)C=O,pomona (1987) ,0.63,16,22,0,11,0,0,0,0,0,0,,27,
"n-(2,6-difluorophenyl)acetamide",C8H7F2N1O1,003896-29-5,CC(=O)Nc1c(F)cccc1F,"nakagawa,y et al. (1992) ",0.69,8,7,1,1,0,0,2,0,0,0,,12,
fludiazepam,C16H12Cl1F1N2O1,003900-31-0,CN1C(=O)CN=C(c2ccccc2F)c3cc(Cl)ccc13,"hansch,c et al. (1995) ",2.75,16,12,2,1,0,0,1,1,0,0,,21,
2-[(2-amino-3-methylbutanoyl)amino]-3-methylbutanoic acid,C10H20N2O3,003918-94-3,CC(C)C(N)C(=O)NC(C(C)C)C(O)=O,biobyte starlist (2009) ,-2.82,10,20,2,3,0,0,0,0,0,0,,15,
oleandomycin,C35H61N1O12,003922-90-5,COC1CC(OC(C)C1O)O[C@H]2[C@H](C)[C@@H](OC3OC(C)CC(C3O)N(C)C)[C@@H](C)C[C@]4(CO4)C(=O)[C@H](C)[C@@H](O)[C@@H](C)[C@@H](C)OC(=O)[C@@H]2C,"mcfarland,jw et al. (1997) ",1.69,35,61,1,12,0,0,0,0,0,0,,48,
n-[4-[1-hydroxy-2-(propan-2-ylamino)ethyl]phenyl]methanesulfonamide,C12H20N2O3S1,003930-20-9,CC(C)NCC(O)c1ccc(N[S](C)(=O)=O)cc1,"burgot,g et al. (1990) ",0.24,12,20,2,3,1,0,0,0,0,0,,18,
2-iodobenzamide,C7H6I1N1O1,003930-83-4,NC(=O)c1ccccc1I,"nakagawa,y et al. (1992) ",0.93,7,6,1,1,0,0,0,0,0,1,,10,
(3-propan-2-yloxyphenyl) n-methylcarbamate,C11H15N1O3,003938-20-3,CNC(=O)Oc1cccc(OC(C)C)c1,"hansch,c et al. (1995) ",1.96,11,15,1,3,0,0,0,0,0,0,,15,
(3-methoxyphenyl) n-methylcarbamate,C9H11N1O3,003938-28-1,CNC(=O)Oc1cccc(OC)c1,"hansch,c et al. (1995) ",1.3,9,11,1,3,0,0,0,0,0,0,,13,
(4-methoxyphenyl) n-methylcarbamate,C9H11N1O3,003938-29-2,CNC(=O)Oc1ccc(OC)cc1,"hansch,c et al. (1995) ",1.2,9,11,1,3,0,0,0,0,0,0,,13,
(4-methylsulfanylphenyl) n-methylcarbamate,C9H11N1O2S1,003938-34-9,CNC(=O)Oc1ccc(SC)cc1,"hansch,c et al. (1995) ",1.92,9,11,1,2,1,0,0,0,0,0,,13,
n-me-2-chlorophenylcarbamate,C8H8Cl1N1O2,003942-54-9,CNC(=O)Oc1c(Cl)cccc1,"hansch,c et al. (1995) ",1.64,8,8,1,2,0,0,0,1,0,0,,12,
(5-methyl-2-propan-2-ylphenyl) n-methylcarbamate,C12H17N1O2,003942-71-0,CNC(=O)Oc1cc(C)ccc1C(C)C,sangster (1994) ,2.84,12,17,1,2,0,0,0,0,0,0,,15,
4-iodobenzamide,C7H6I1N1O1,003956-07-8,NC(=O)c1ccc(I)cc1,"hansch,c et al. (1995) ",1.99,7,6,1,1,0,0,0,0,0,1,,10,
disperse blue 79,C23H25Br1N6O10,003956-55-6,CCOc1cc(N=Nc2cc(cc(c2Br)[N+]([O-])=O)[N+]([O-])=O)c(NC(C)=O)cc1N(CCOC(C)=O)CCOC(C)=O,"baughman,gl & weber,ej (1991) ",4.8,23,25,6,10,0,0,0,0,1,0,,40,
4-acetoxy dichloroacetanilide,C10H9Cl2N1O3,003957-74-2,CC(=O)Oc1ccc(NC(=O)C(Cl)Cl)cc1,"dutta,h et al. (1988) ",1.9,10,9,1,3,0,0,0,2,0,0,,16,
3-chloro-4-hydroxybenzoic acid,C7H5Cl1O3,003964-58-7,OC(=O)c1ccc(O)c(Cl)c1,sangster (1993) ,2.41,7,5,0,3,0,0,0,1,0,0,,11,
3964-81-6,C20H22N2,003964-81-6,CN1CCC(CC1)=C2c3ccccc3CCc4cccnc24,biobyte (1995) ,3.59,20,22,2,0,0,0,0,0,0,0,,22,
(3-butoxyphenyl) n-methylcarbamate,C12H17N1O3,003978-68-5,CCCCOc1cccc(OC(=O)NC)c1,"hansch,c et al. (1995) ",2.96,12,17,1,3,0,0,0,0,0,0,,16,
"2-propen-1-one, 1,3-bis(2-furanyl)-",C11H8O3,003988-76-9,O=C(C=Cc1occc1)c2occc2,"hansch,c et al. (1995) ",2.34,11,8,0,3,0,0,0,0,0,0,,14,
2-bromobenzamide,C7H6Br1N1O1,004001-73-4,NC(=O)c1ccccc1Br,"nakagawa,y et al. (1992) ",0.77,7,6,1,1,0,0,0,0,1,0,,10,
"1,3,4-thiadiazol-2-amine",C2H3N3S1,004005-51-0,Nc1scnn1,"hansch,c et al. (1995) ",-0.57,2,3,3,0,1,0,0,0,0,0,,6,
5-nitroquinolin-8-ol,C9H6N2O3,004008-48-4,Oc1ccc(c2cccnc12)[N+]([O-])=O,"hansch,c et al. (1995) ",1.99,9,6,2,3,0,0,0,0,0,0,,14,
2-(ethoxymethyl)oxirane,C5H10O2,004016-11-9,CCOCC1CO1,"hansch,c et al. (1995) ",0.36,5,10,0,2,0,0,0,0,0,0,,7,
"6,6-dimethyl-1-phenyl-1,3,5-triazine-2,4-diamine",C11H15N5,004022-58-6,CC1(C)N=C(N)N=C(N)N1c2ccccc2,"hansch,c et al. (1995) ",0.28,11,15,5,0,0,0,0,0,0,0,,16,
4-methylsulfonylbenzoic acid,C8H8O4S1,004052-30-6,C[S](=O)(=O)c1ccc(cc1)C(O)=O,"hansch,c et al. (1995) ",0.67,8,8,0,4,1,0,0,0,0,0,,13,
"3,5-dioh-tricyclo[2210(2,6)]heptane",C7H10O2,004054-88-0,C1C2C(O)C3C(C2O)C13,"lodge,kb (1999) ",-0.42,7,10,0,2,0,0,0,0,0,0,,9,
"1,2-dibenzoylethylene",C16H12O2,004070-75-1,O=C(C=CC(=O)c1ccccc1)c2ccccc2,"hansch,c et al. (1995) ",3.16,16,12,0,2,0,0,0,0,0,0,,18,
ethyl 2-oxo-2-thiophen-2-ylacetate,C8H8O3S1,004075-58-5,CCOC(=O)C(=O)c1sccc1,"hansch,c et al. (1995) ",1.77,8,8,0,3,1,0,0,0,0,0,,12,
4-[(4-hydroxyphenyl)-phenylmethyl]phenol,C19H16O2,004081-02-1,Oc1ccc(cc1)C(c2ccccc2)c3ccc(O)cc3,"hansch,c et al. (1995) ",4.3,19,16,0,2,0,0,0,0,0,0,,21,
naphthalen-2-yl n-methylcarbamate,C12H11N1O2,004089-04-7,CNC(=O)Oc1ccc2ccccc2c1,"hansch,c et al. (1995) ",2.56,12,11,1,2,0,0,0,0,0,0,,15,
4-amino-5-bromo-n-(2-diethylaminoethyl)-2-methoxybenzamide,C14H22Br1N3O2,004093-35-0,CCN(CC)CCNC(=O)c1cc(Br)c(N)cc1OC,sangster (1993) ,2.83,14,22,3,2,0,0,0,0,1,0,,20,
4-(4-methylphenyl)sulfonylaniline,C13H13N1O2S1,004094-38-6,Cc1ccc(cc1)[S](=O)(=O)c2ccc(N)cc2,"altomare,c et al. (1991) ",2.4,13,13,1,2,1,0,0,0,0,0,,17,
1-phenylpiperidine,C11H15N1,004096-20-2,C1CCN(CC1)c2ccccc2,"hansch,c et al. (1995) ",2.98,11,15,1,0,0,0,0,0,0,0,,12,
1-phenylpyrrolidine,C10H13N1,004096-21-3,C1CCN(C1)c2ccccc2,"hansch,c et al. (1995) ",3.56,10,13,1,0,0,0,0,0,0,0,,11,
[5-(6-aminopurin-9-yl)oxolan-2-yl]methanol,C10H13N5O2,004097-22-7,Nc1ncnc2n(cnc12)C3CCC(CO)O3,sangster (1993) ,-0.25,10,13,5,2,0,0,0,0,0,0,,17,
1-methyl-1-phenylthiourea,C8H10N2S1,004104-75-0,CN(C(N)=S)c1ccccc1,"hansch,c et al. (1995) ",0.85,8,10,2,0,1,0,0,0,0,0,,11,
"[4-acetyloxy-2-(acetyloxymethyl)-5-(2,4-dioxopyrimidin-1-yl)oxolan-3-yl] acetate",C15H18N2O9,004105-38-8,CC(=O)OCC1OC(C(OC(C)=O)C1OC(C)=O)N2C=CC(=O)NC2=O,biobyte starlist (2009) ,-0.36,15,18,2,9,0,0,0,0,0,0,,26,
n-[bis(aziridin-1-yl)phosphoryl]benzamide,C11H14N3O2P1,not,O=C(N[P](=O)(N1CC1)N2CC2)c3ccccc3,"hansch,c et al. (1995) ",0.81,11,14,3,2,0,1,0,0,0,0,,17,
3-iodopropylbenzene,C9H11I1,004119-41-9,ICCCc1ccccc1,"hansch,c et al. (1995) ",3.9,9,11,0,0,0,0,0,0,0,1,,10,
3-methoxy-3h-2-benzofuran-1-one,C9H8O3,004122-57-0,COC1OC(=O)c2ccccc12,"hansch,c et al. (1995) ",1,9,8,0,3,0,0,0,0,0,0,,12,
2-(4-hydroxyphenyl)chromen-4-one,C15H10O3,004143-63-9,Oc1ccc(cc1)C2=CC(=O)c3ccccc3O2,pomona (1987) ,3.2,15,10,0,3,0,0,0,0,0,0,,18,
2-(benzotriazol-1-yl)acetic acid,C8H7N3O2,004144-64-3,OC(=O)Cn1nnc2ccccc12,sangster (1994) ,-1.88,8,7,3,2,0,0,0,0,0,0,,13,
2-(benzotriazol-2-yl)acetic acid,C8H7N3O2,004144-68-7,OC(=O)Cn1nc2ccccc2n1,"hansch,c et al. (1995) ",-1.64,8,7,3,2,0,0,0,0,0,0,,13,
"6-ethylsulfanyl-n,n'-di(propan-2-yl)-1,3,5-triazine-2,4-diamine",C11H21N5S1,004147-51-7,CCSc1nc(NC(C)C)nc(NC(C)C)n1,biobyte (1995) ,3.81,11,21,5,0,1,0,0,0,0,0,,17,
n-(3-tert-butyl-4-hydroxyphenyl)acetamide,C12H17N1O2,004151-47-7,CC(=O)Nc1ccc(O)c(c1)C(C)(C)C,"hansch,c et al. (1995) ",2.36,12,17,1,2,0,0,0,0,0,0,,15,
1-dimethoxyphosphorylpropan-2-one,C5H11O4P1,004202-14-6,CO[P](=O)(CC(C)=O)OC,daylight (1999) ,-0.86,5,11,0,4,0,1,0,0,0,0,,10,
"3,5-dicl salicylanilide",C13H9Cl2N1O2,004214-48-6,Clc1cc(Cl)cc(C(=O)Nc2ccccc2)c1O,"terada,h et al. (1988) ",4.01,13,9,1,2,0,0,0,2,0,0,,18,
"3-methyl-5,5-di(phenyl)imidazolidine-2,4-dione",C16H14N2O2,004224-00-4,CN1C(=O)NC(C1=O)(c2ccccc2)c3ccccc3,sangster (1994) ,2.28,16,14,2,2,0,0,0,0,0,0,,20,
"2-cf3-4,6-dichlorobenzimidazole",C8H3Cl2F3N2,004228-88-0,C1=C(C=C(C2=C1NC(=N2)C(F)(F)F)Cl)Cl,"hansch,c & leo,aj (1985) ",3.49,8,3,2,0,0,0,3,2,0,0,,15,
"2-cf3-4,7-dichlorobenzimidazole",C8H3Cl2F3N2,004228-89-1,C1=CC(=C2C(=C1Cl)NC(=N2)C(F)(F)F)Cl,"hansch,c & leo,aj (1985) ",2.87,8,3,2,0,0,0,3,2,0,0,,15,
2-(benzotriazol-1-yl)-2-methylpropanoic acid,C10H11N3O2,004233-61-8,CC(C)(n1nnc2ccccc12)C(O)=O,"sparatore,f et al. (1988) ",-0.2,10,11,3,2,0,0,0,0,0,0,,15,
"5-methyl-6h-pyrido[4,3-b]carbazole",C16H12N2,004238-66-8,Cc1c2[nH]c3ccccc3c2cc4cnccc14,pomona (1987) ,4.06,16,12,2,0,0,0,0,0,0,0,,18,
1-(phenylmethyl)imidazole,C10H10N2,004238-71-5,C(n1ccnc1)c2ccccc2,"avdeef,a (1993) ",1.6,10,10,2,0,0,0,0,0,0,0,,12,
tert-butyl carbamate,C5H11N1O2,004248-19-5,CC(C)(C)OC(N)=O,"hansch,c et al. (1995) ",0.48,5,11,1,2,0,0,0,0,0,0,,8,
2-diethylamino-1-phenylethanol,C12H19N1O1,004249-64-3,CCN(CC)CC(O)c1ccccc1,"hansch,c et al. (1995) ",2.02,12,19,1,1,0,0,0,0,0,0,,14,
9-(phenylmethyl)purin-6-amine,C12H11N5,004261-14-7,Nc1ncnc2n(Cc3ccccc3)cnc12,"lam,sp et al. (1989) ",1.7,12,11,5,0,0,0,0,0,0,0,,17,
2-methyl-1-benzofuran,C9H8O1,004265-25-2,Cc1oc2ccccc2c1,sangster (1993) ,3.22,9,8,0,1,0,0,0,0,0,0,,10,
"1,3-di(phenyl)propan-2-amine",C15H17N1,004275-43-8,NC(Cc1ccccc1)Cc2ccccc2,"hansch,c et al. (1995) ",3.35,15,17,1,0,0,0,0,0,0,0,,16,
1-iodoheptane,C7H15I1,004282-40-0,CCCCCCCI,"hansch,c et al. (1995) ",4.7,7,15,0,0,0,0,0,0,0,1,,8,
p-chloro methanesulfonanilide,C7H8Cl1N1O2S1,004284-51-9,CS(=O)(=O)Nc1ccc(Cl)cc1,"hansch,c et al. (1995) ",1.85,7,8,1,2,1,0,0,1,0,0,,12,
[1-naphthalen-1-yloxy-3-(propan-2-ylamino)propan-2-yl] acetate,C18H23N1O3,004290-62-4,CC(C)NCC(COc1cccc2ccccc12)OC(C)=O,sangster (1994) ,4.34,18,23,1,3,0,0,0,0,0,0,,22,
nsc105014,C10H12Cl1N5O3,not,Nc1nc(Cl)nc2n(cnc12)C3CC(O)C(CO)O3,biobyte (1995) ,0.02,10,12,5,3,0,0,0,1,0,0,,19,
"hepta-1,3,5-triynylbenzene",C13H8,004300-27-0,CC#CC#CC#Cc1ccccc1,"mclachlan,d et al. (1986) ",4.91,13,8,0,0,0,0,0,0,0,0,,13,
"2-(hydroxymethyl)-6-(phenylmethoxy)oxane-3,4,5-triol",C13H18O6,004304-12-5,OCC1OC(OCc2ccccc2)C(O)C(O)C1O,"hansch,c et al. (1995) ",-0.7,13,18,0,6,0,0,0,0,0,0,,19,
n-ethylpyridine-3-carboxamide,C8H10N2O1,004314-66-3,CCNC(=O)c1cccnc1,"hansch,c et al. (1995) ",0.31,8,10,2,1,0,0,0,0,0,0,,11,
"pyrimidine, 4,6-dichloro-5-nitro-",C4H1Cl2N3O2,004316-93-2,[O-][N+](=O)c1c(Cl)ncnc1Cl,"liao,yy et al. (1996a) ",2.29,4,1,3,2,0,0,0,2,0,0,,11,
4-ethyldithiol-3-one,C5H6O1S2,004318-15-4,CCC1=CSSC1=O,"bona,m et al. (1995) ",1.9,5,6,0,1,2,0,0,0,0,0,,8,
"1-methyl-1,4-diazepane",C6H14N2,not,CN1CCCNCC1,biobyte (1995) ,-0.4,6,14,2,0,0,0,0,0,0,0,,8,
"3-(phenylmethylidene)pentane-2,4-dione",C12H12O2,004335-90-4,CC(=O)C(=Cc1ccccc1)C(C)=O,"hansch,c et al. (1995) ",1.59,12,12,0,2,0,0,0,0,0,0,,14,
imidazol-4-conh2-5(33dime-1-triazeno),C6H10N6O1,004342-03-4,CN(C)N=NC1=C(NC=N1)C(=O)N,"hansch,c et al. (1995) ",-0.24,6,10,6,1,0,0,0,0,0,0,,13,
5-(4-pyridyl)pentan-1-ol,C10H15N1O1,004343-96-8,OCCCCCc1ccncc1,"hansch,c et al. (1995) ",1.39,10,15,1,1,0,0,0,0,0,0,,12,
"(17-acetyl-9-fluoro-11-hydroxy-10,13,16-trimethyl-3-oxo-6,7,8,11,12,14,15,16-octahydrocyclopenta[a]phenanthren-17-yl) propanoate",C25H33F1O5,004351-48-8,CCC(=O)OC1(C(C)CC2C3CCC4=CC(=O)C=CC4(C)C3(F)C(O)CC12C)C(C)=O,"hansch,c et al. (1995) ",3.09,25,33,0,5,0,0,1,0,0,0,,31,
"(17-acetyl-9-fluoro-10,13,16-trimethyl-3,11-dioxo-7,8,12,14,15,16-hexahydro-6h-cyclopenta[a]phenanthren-17-yl) propanoate",C25H31F1O5,004351-59-1,CCC(=O)OC1(C(C)CC2C3CCC4=CC(=O)C=CC4(C)C3(F)C(=O)CC12C)C(C)=O,"hansch,c et al. (1995) ",3.09,25,31,0,5,0,0,1,0,0,0,,31,
phenyl benzenesulfonate,C12H10O3S1,004358-63-8,O=[S](=O)(Oc1ccccc1)c2ccccc2,"hansch,c et al. (1995) ",3.06,12,10,0,3,1,0,0,0,0,0,,16,
"ajmalan-17,21-diol, (17r,21.alpha.)-",C20H26N2O2,004360-12-7,CC[C@@H]1[C@@H](O)N2[C@H]3C[C@@H]1[C@@H]4[C@@H](O)[C@@]5(C[C@H]24)[C@H]3N(C)c6ccccc56,"hansch,c et al. (1995) ",1.81,20,26,2,2,0,0,0,0,0,0,,24,
1-(phenylmethyl)triazole,C9H9N3,004368-68-7,C(n1ccnn1)c2ccccc2,"hansch,c et al. (1995) ",1.27,9,9,3,0,0,0,0,0,0,0,,12,
4-phenylbenzenesulfonamide,C12H11N1O2S1,004371-23-7,N[S](=O)(=O)c1ccc(cc1)c2ccccc2,"carotti,a et al. (1989) ",2.24,12,11,1,2,1,0,0,0,0,0,,16,
2-methoxycarbonylbenzoic acid,C9H8O4,004376-18-5,COC(=O)c1ccccc1C(O)=O,"hansch,c et al. (1995) ",1.13,9,8,0,4,0,0,0,0,0,0,,13,
2-(hydroxymethyl)-4-methylphenol,C8H10O2,004383-07-7,Cc1ccc(O)c(CO)c1,sangster (1993) ,0.97,8,10,0,2,0,0,0,0,0,0,,10,
"5-ethyl-5-(3-methylbutyl)-2-sulfanylidene-1,3-diazinane-4,6-dione",C11H18N2O2S1,004388-79-8,CCC1(CCC(C)C)C(=O)NC(=S)NC1=O,"hansch,c et al. (1995) ",2.98,11,18,2,2,1,0,0,0,0,0,,16,
2-[[3-(trifluoromethyl)phenyl]amino]pyridine-3-carboxylic acid,C13H9F3N2O2,004394-00-7,OC(=O)c1cccnc1Nc2cccc(c2)C(F)(F)F,"takacs-novak,k et al. (1995) ",4.43,13,9,2,2,0,0,3,0,0,0,,20,
2-methyl-n-phenylpropanamide,C10H13N1O1,004406-41-1,CC(C)C(=O)Nc1ccccc1,"hansch,c et al. (1995) ",1.95,10,13,1,1,0,0,0,0,0,0,,12,
3-methyl-2-phenyl-8-prop-2-enylchromen-4-one,C19H16O2,004412-35-5,CC1=C(Oc2c(CC=C)cccc2C1=O)c3ccccc3,"hansch,c et al. (1995) ",4.67,19,16,0,2,0,0,0,0,0,0,,21,
furan-3-ylmethanol,C5H6O2,004412-91-3,OCc1cocc1,"hansch,c et al. (1995) ",0.3,5,6,0,2,0,0,0,0,0,0,,7,
"n-[1,3-dihydroxy-1-(4-nitrophenyl)propan-2-yl]acetamide",C11H14N2O5,004423-58-9,CC(=O)NC(CO)C(O)c1ccc(cc1)[N+]([O-])=O,"hansch,c et al. (1995) ",-0.03,11,14,2,5,0,0,0,0,0,0,,18,
"7,8,9,10-tetrahydro-6h-azepino[2,1-b]quinazolin-12-one",C13H14N2O1,004425-23-4,O=C1N2CCCCCC2=Nc3ccccc13,sangster (1994) ,2,13,14,2,1,0,0,0,0,0,0,,16,
2-isothiocyanatobutane,C5H9N1S1,004426-79-3,CCC(C)N=C=S,pomona (1987) ,2.81,5,9,1,0,1,0,0,0,0,0,,7,
4-methanesulfonamidobenzenesulfonamide,C7H10N2O4S2,004426-90-8,C[S](=O)(=O)Nc1ccc(cc1)[S](N)(=O)=O,"carotti,a et al. (1989) ",-0.4,7,10,2,4,2,0,0,0,0,0,,15,
2-(2-methylpropoxy)ethanol,C6H14O2,004439-24-1,CC(C)COCCO,"tanii,h et al. (1992) ",0.75,6,14,0,2,0,0,0,0,0,0,,8,
2-thiophen-2-ylacetamide,C6H7N1O1S1,004461-29-4,NC(=O)Cc1sccc1,"hansch,c et al. (1995) ",0.33,6,7,1,1,1,0,0,0,0,0,,9,
(4-methoxyphenyl) 4-amino-2-hydroxybenzoate,C14H13N1O4,004465-61-6,COc1ccc(OC(=O)c2ccc(N)cc2O)cc1,"hansch,c et al. (1995) ",3.07,14,13,1,4,0,0,0,0,0,0,,19,
"6-(hexanoylamino)-3,3-dimethyl-7-oxo-4-thia-1-azabicyclo[3.2.0]heptane-2-carboxylic acid",C14H22N2O4S1,004493-18-9,CCCCCC(=O)NC1C2SC(C)(C)C(N2C1=O)C(O)=O,"hansch,c & leo,aj (1985) ",2.37,14,22,2,4,1,0,0,0,0,0,,21,
"5-(2-dimethylaminoethyl)-11-methylbenzo[b][1,4]benzodiazepin-6-one",C18H21N3O1,004498-32-2,CN(C)CCN1C2C(=O)C=CC=C2N=C(C)c3ccccc13,"hansch,c et al. (1995) ",2.5,18,21,3,1,0,0,0,0,0,0,,22,
1h-pyrrole-2-carbonitrile,C5H4N2,004513-94-4,N#Cc1[nH]ccc1,"hansch,c et al. (1995) ",1.13,5,4,2,0,0,0,0,0,0,0,,7,
4'-chlorobenzoguanamine,C9H8Cl1N5,004514-53-8,Clc1ccc(c2nc(N)nc(N)n2)cc1,"hansch,c & leo,aj (1985) ",2.33,9,8,5,0,0,0,0,1,0,0,,15,
3'-chlorobenzoguanamine,C9H8Cl1N5,004514-54-9,Clc1cccc(c2nc(N)nc(N)n2)c1,"hansch,c & leo,aj (1985) ",2.33,9,8,5,0,0,0,0,1,0,0,,15,
4-(4-methoxyphenyl)butanoic acid,C11H14O3,004521-28-2,COc1ccc(CCCC(O)=O)cc1,"hansch,c & leo,aj (1985) ",2.33,11,14,0,3,0,0,0,0,0,0,,14,
2-chlorophenyl acetate,C8H7Cl1O2,004525-75-1,CC(=O)Oc1ccccc1Cl,"hansch,c et al. (1995) ",2.18,8,7,0,2,0,0,0,1,0,0,,11,
tridecan-6-ylbenzene,C19H32,004534-51-4,CCCCCCCC(CCCCC)c1ccccc1,"sherblom,pm et al. (1992) ",8.62,19,32,0,0,0,0,0,0,0,0,,19,