Names,Formula,CAS No,SMILES,Reference,Exp logp,C,H,N,O,S,P,F,Cl,Br,I,,,
"dibenzofuran, 2,3,4,6-tetrachloro-",C12H4Cl4O1,083704-30-7,Clc1cccc2c1oc3c(Cl)c(Cl)c(Cl)cc23,"sijm,dthm et al. (1989) ",6.11,12,4,0,1,0,0,0,4,0,0,,17,
phosmethylan,C13H19Cl1N1O3P1S2,083733-82-8,CCCC(=O)N(CS[P](=S)(OC)OC)c1ccccc1Cl,"tomlin,c (2003) ",0.56,13,19,1,3,2,1,0,1,0,0,,21,
5-amino-5-oxo-2-(phenylsulfonylamino)pentanoic acid,C11H14N2O5S1,083870-87-5,NC(=O)CCC(N[S](=O)(=O)c1ccccc1)C(O)=O,"jha,t et al. (1986) ",0.33,11,14,2,5,1,0,0,0,0,0,,19,
5-ethylamino-5-oxo-2-(phenylsulfonylamino)pentanoic acid,C13H18N2O5S1,083870-89-7,CCNC(=O)CCC(N[S](=O)(=O)c1ccccc1)C(O)=O,"jha,t et al. (1986) ",0.15,13,18,2,5,1,0,0,0,0,0,,21,
5-oxo-2-(phenylsulfonylamino)-5-propylaminopentanoic acid,C14H20N2O5S1,083870-90-0,CCCNC(=O)CCC(N[S](=O)(=O)c1ccccc1)C(O)=O,"jha,t et al. (1986) ",0.01,14,20,2,5,1,0,0,0,0,0,,22,
2-[(4-methylphenyl)sulfonylamino]-5-oxo-5-propylaminopentanoic acid,C15H22N2O5S1,083870-99-9,CCCNC(=O)CCC(N[S](=O)(=O)c1ccc(C)cc1)C(O)=O,"jha,t et al. (1986) ",0.02,15,22,2,5,1,0,0,0,0,0,,23,
cetirizine,C21H25Cl1N2O3,083881-51-0,OC(=O)COCCN1CCN(CC1)C(c2ccccc2)c3ccc(Cl)cc3,"hansch,c et al. (1995) ",1.7,21,25,2,3,0,0,0,1,0,0,,27,
azithromycin,C38H72N2O12,083905-01-5,CC[C@H]1OC(=O)[C@H](C)[C@@H](O[C@H]2C[C@@](C)(OC)[C@@H](O)[C@H](C)O2)C(C)[C@@H](O[C@@H]3O[C@H](C)C[C@@H]([C@H]3O)N(C)C)[C@](C)(O)C[C@@H](C)CN(C)[C@H](C)[C@@H](O)[C@]1(C)O,"mcfarland,jw et al. (1997) ",4.02,38,72,2,12,0,0,0,0,0,0,,52,
mometasone furoate,C27H30Cl2O6,083919-23-7,C[C@@H]1C[C@H]2[C@@H]3CCC4=CC(=O)C=C[C@]4(C)[C@@]3(Cl)[C@@H](O)C[C@]2(C)[C@@]1(OC(=O)c5occc5)C(=O)CCl,biobyte starlist (2009) ,3.9,27,30,0,6,0,0,0,2,0,0,,35,
"2,2',3,4,4',5,5'-heptachloro-diph ether",C12H3Cl7O1,083992-69-2,Clc2c(Cl)c(Cl)c(Cl)cc2Oc1cc(Cl)c(Cl)cc1Cl,"kurz,j & ballschmiter,k (1999) ",7.46,12,3,0,1,0,0,0,7,0,0,,20,
"2,3,3',4,4',5,6-heptachlorodiphenylether",C12H3Cl7O1,083992-70-5,Clc2c(Cl)c(Cl)c(Cl)c(Cl)c2Oc1ccc(Cl)c(Cl)c1,"kurz,j & ballschmiter,k (1999) ",7.31,12,3,0,1,0,0,0,7,0,0,,20,
"2,2',3,3',4',5,6-heptachloro-diph ether",C12H3Cl7O1,083992-71-6,Clc2c(Cl)cc(Cl)c(Cl)c2Oc1ccc(Cl)c(Cl)c1Cl,"kurz,j & ballschmiter,k (1999) ",7.14,12,3,0,1,0,0,0,7,0,0,,20,
"2,3,3',4,4',5,5-heptachlorodiphenylether",C12H3Cl7O1,083992-72-7,Clc2c(Cl)c(Cl)c(Cl)cc2Oc1cc(Cl)c(Cl)c(Cl)c1,"kurz,j & ballschmiter,k (1999) ",7.55,12,3,0,1,0,0,0,7,0,0,,20,
"2,2',3,3',4,4',5,5',6-nona-cl-diph ether",C12H1Cl9O1,083992-73-8,c1c(Oc2c(Cl)c(Cl)c(Cl)c(Cl)c2Cl)c(Cl)c(Cl)c(Cl)c1Cl,"kurz,j & ballschmiter,k (1999) ",8.07,12,1,0,1,0,0,0,9,0,0,,22,
"2,2',3,4,4',5,5',6-octachloro-diph ether",C12H2Cl8O1,083992-75-0,c1c(Cl)c(Oc2c(Cl)c(Cl)c(Cl)c(Cl)c2Cl)cc(Cl)c1Cl,"kurz,j & ballschmiter,k (1999) ",7.81,12,2,0,1,0,0,0,8,0,0,,21,
"[3-hydroxy-5-(5-iodo-2,4-dioxopyrimidin-1-yl)oxolan-2-yl]methyl benzoate",C16H15I1N2O6,084043-31-2,OC1CC(OC1COC(=O)c2ccccc2)N3C=C(I)C(=O)NC3=O,sangster (1994) ,1.4,16,15,2,6,0,0,0,0,0,1,,25,
"[3-hydroxy-5-(5-iodo-2,4-dioxopyrimidin-1-yl)oxolan-2-yl]methyl pentanoate",C14H19I1N2O6,084052-69-7,CCCCC(=O)OCC1OC(CC1O)N2C=C(I)C(=O)NC2=O,sangster (1994) ,1.44,14,19,2,6,0,0,0,0,0,1,,23,
lamotrigine,C9H7Cl2N5,084057-84-1,Nc1nnc(c(N)n1)c2cccc(Cl)c2Cl,biobyte starlist (2009) ,2.57,9,7,5,0,0,0,0,2,0,0,,16,
"n-(2,6-dimethylphenyl)-1-propylpiperidine-2-carboxamide",C17H26N2O1,084057-95-4,CCCN1CCCCC1C(=O)Nc2c(C)cccc2C,"hansch,c et al. (1995) ",2.9,17,26,2,1,0,0,0,0,0,0,,20,
1-[4-[2-[2-(4-fluorophenyl)ethoxy]ethoxy]phenoxy]-3-(propan-2-ylamino)propan-2-ol,C22H30F1N1O4,084057-96-5,CC(C)NCC(O)COc1ccc(OCCOCCc2ccc(F)cc2)cc1,"recanatini,m (1992) ",3.7,22,30,1,4,0,0,1,0,0,0,,28,
"3,5-dihydroxy-7-[2-methyl-8-(2-methylbutanoyloxy)-1,2,6,7,8,8a-hexahydronaphthalen-1-yl]heptanoic acid",C23H36O6,084064-38-0,CCC(C)C(=O)OC1CCC=C2C=CC(C)C(CCC(O)CC(O)CC(O)=O)C12,biobyte (1995) ,3.6,23,36,0,6,0,0,0,0,0,0,,29,
n-[(4-methoxyphenyl)methyl]-n-methylnitrous amide,C9H12N2O2,084174-20-9,COc1ccc(CN(C)N=O)cc1,"hansch,c et al. (1995) ",1.62,9,12,2,2,0,0,0,0,0,0,,13,
n-[(4-fluorophenyl)methyl]-n-methylnitrous amide,C8H9F1N2O1,084174-21-0,CN(Cc1ccc(F)cc1)N=O,"singer,gm et al. (1986) ",1.67,8,9,2,1,0,0,1,0,0,0,,12,
"benzenemethanamine, 4-chloro-n-methyl-n-nitroso-",C8H9Cl1N2O1,084174-22-1,CN(Cc1ccc(Cl)cc1)N=O,"singer,gm et al. (1986) ",2.19,8,9,2,1,0,0,0,1,0,0,,12,
n-[(4-cyanophenyl)methyl]-n-methylnitrous amide,C9H9N3O1,084174-23-2,CN(Cc1ccc(cc1)C#N)N=O,"hansch,c et al. (1995) ",0.95,9,9,3,1,0,0,0,0,0,0,,13,
3-pyridin-2-ylpropanamide,C8H10N2O1,084199-91-7,NC(=O)CCc1ccccn1,"hansch,c et al. (1995) ",-0.27,8,10,2,1,0,0,0,0,0,0,,11,
3-pyridin-3-ylpropanamide,C8H10N2O1,084199-99-5,NC(=O)CCc1cccnc1,"hansch,c et al. (1995) ",-0.26,8,10,2,1,0,0,0,0,0,0,,11,
5-(3-pyridyl)pentan-1-ol,C10H15N1O1,084200-03-3,OCCCCCc1cccnc1,"hansch,c et al. (1995) ",1.41,10,15,1,1,0,0,0,0,0,0,,12,
5-pyridin-3-ylpentanamide,C10H14N2O1,084200-04-4,NC(=O)CCCCc1cccnc1,"hansch,c et al. (1995) ",0.4,10,14,2,1,0,0,0,0,0,0,,13,
5-pyridin-3-ylpentan-1-amine,C10H16N2,084200-05-5,NCCCCCc1cccnc1,"hansch,c et al. (1995) ",1.41,10,16,2,0,0,0,0,0,0,0,,12,
5-pyridin-4-ylpentanamide,C10H14N2O1,084200-11-3,NC(=O)CCCCc1ccncc1,"hansch,c et al. (1995) ",0.42,10,14,2,1,0,0,0,0,0,0,,13,
chlozolinate,C13H11Cl2N1O5,084332-86-5,CCOC(=O)C1(C)OC(=O)N(C1=O)c2cc(Cl)cc(Cl)c2,"tomlin,c (1997) ",3.15,13,11,1,5,0,0,0,2,0,0,,21,
"yclopropanecarboxylic acid, 3-[(dihydro-2-oxo-3(",C12H16O3S1,084368-16-1,COC(=O)C1C(C=C2CCSC2(=O))C1(C)C,sangster (1993) ,2.33,12,16,0,3,1,0,0,0,0,0,,16,
2-[(2-aminopurin-9-yl)methoxy]ethanol,C8H11N5O2,084408-37-7,Nc1ncc2ncn(COCCO)c2n1,"kristl,a et al. (1993) ",-1.08,8,11,5,2,0,0,0,0,0,0,,15,
itraconazole,C35H38Cl2N8O4,084625-61-6,CCC(C)N1N=CN(C1=O)c2ccc(cc2)N3CCN(CC3)c4ccc(OC[C@H]5CO[C@@](Cn6cncn6)(O5)c7ccc(Cl)cc7Cl)cc4,http,5.66,35,38,8,4,0,0,0,2,0,0,,49,
"(4-methylphenyl)methyl n,n-dimethylcarbamate",C11H15N1O2,084640-21-1,CN(C)C(=O)OCc1ccc(C)cc1,"hansch,c et al. (1995) ",2.63,11,15,1,2,0,0,0,0,0,0,,14,
"(4-fluorophenyl)methyl n,n-dimethylcarbamate",C10H12F1N1O2,084640-22-2,CN(C)C(=O)OCc1ccc(F)cc1,"hansch,c et al. (1995) ",2.3,10,12,1,2,0,0,1,0,0,0,,14,
"(3-methoxyphenyl)methyl n,n-dimethylcarbamate",C11H15N1O3,084640-23-3,COc1cccc(COC(=O)N(C)C)c1,"hansch,c et al. (1995) ",2.09,11,15,1,3,0,0,0,0,0,0,,15,
"(4-methoxyphenyl)methyl n,n-dimethylcarbamate",C11H15N1O3,084640-24-4,COc1ccc(COC(=O)N(C)C)cc1,"hansch,c et al. (1995) ",2.2,11,15,1,3,0,0,0,0,0,0,,15,
"(3-aminophenyl)methyl n,n-dimethylcarbamate",C10H14N2O2,084640-25-5,CN(C)C(=O)OCc1cccc(N)c1,"hansch,c et al. (1995) ",1.06,10,14,2,2,0,0,0,0,0,0,,14,
"m-chlorobenzyl n,n-dime carbamate",C10H12Cl1N1O2,084640-26-6,CN(C)C(=O)OCc1cc(Cl)ccc1,"hansch,c et al. (1995) ",2.82,10,12,1,2,0,0,0,1,0,0,,14,
"p-chlorobenzyl n,n-dime carbamate",C10H12Cl1N1O2,084640-27-7,Clc1ccc(COC(=O)N(C)C)cc1,"hansch,c et al. (1995) ",2.93,10,12,1,2,0,0,0,1,0,0,,14,
"(3-dimethylaminophenyl)methyl n,n-dimethylcarbamate",C12H18N2O2,084640-28-8,CN(C)C(=O)OCc1cccc(c1)N(C)C,"hansch,c et al. (1995) ",2.28,12,18,2,2,0,0,0,0,0,0,,16,
"(3-propan-2-yloxyphenyl)methyl n,n-dimethylcarbamate",C13H19N1O3,084640-29-9,CC(C)Oc1cccc(COC(=O)N(C)C)c1,"hansch,c et al. (1995) ",3.03,13,19,1,3,0,0,0,0,0,0,,17,
"[4-(phenylmethoxy)phenyl]methyl n,n-dimethylcarbamate",C17H19N1O3,084640-30-2,CN(C)C(=O)OCc1ccc(OCc2ccccc2)cc1,"hansch,c et al. (1995) ",3.27,17,19,1,3,0,0,0,0,0,0,,21,
"(4-cyanophenyl)methyl n,n-dimethylcarbamate",C11H12N2O2,084640-32-4,CN(C)C(=O)OCc1ccc(cc1)C#N,"hansch,c et al. (1995) ",1.67,11,12,2,2,0,0,0,0,0,0,,15,
"(4-bromophenyl)methyl n,n-dimethylcarbamate",C10H12Br1N1O2,084640-33-5,CN(C)C(=O)OCc1ccc(Br)cc1,"hansch,c et al. (1995) ",3.01,10,12,1,2,0,0,0,0,1,0,,14,
"(4-iodophenyl)methyl n,n-dimethylcarbamate",C10H12I1N1O2,084640-34-6,CN(C)C(=O)OCc1ccc(I)cc1,"hansch,c et al. (1995) ",3.32,10,12,1,2,0,0,0,0,0,1,,14,
"[4-(trifluoromethyl)phenyl]methyl n,n-dimethylcarbamate",C11H12F3N1O2,084640-35-7,CN(C)C(=O)OCc1ccc(cc1)C(F)(F)F,"hansch,c et al. (1995) ",3.08,11,12,1,2,0,0,3,0,0,0,,17,
"[4-(dimethylcarbamoyloxy)phenyl]methyl n,n-dimethylcarbamate",C13H18N2O4,084640-38-0,CN(C)C(=O)OCc1ccc(OC(=O)N(C)C)cc1,"hansch,c et al. (1995) ",1.59,13,18,2,4,0,0,0,0,0,0,,19,
"(4-methylsulfanylphenyl)methyl n,n-dimethylcarbamate",C11H15N1O2S1,084640-39-1,CSc1ccc(COC(=O)N(C)C)cc1,"hansch,c et al. (1995) ",2.86,11,15,1,2,1,0,0,0,0,0,,15,
2-acetamidobutanediamide,C6H11N3O3,084652-30-2,CC(=O)NC(CC(N)=O)C(N)=O,sangster (1994) ,-2.41,6,11,3,3,0,0,0,0,0,0,,12,
"1,3,5-triazine-2,4-diamine, 6-chloro-n-ethyl-n'-",C11H18Cl1N5,084712-77-6,Clc1nc(NCC)nc(NC2CCCCC2)n1,"mitsutake,ki et al. (1986) ",3.63,11,18,5,0,0,0,0,1,0,0,,17,
2-dimethylamino-5-pyridin-4-ylpyridine-3-carbonitrile,C13H12N4,084884-30-0,CN(C)c1ncc(cc1C#N)c2ccncc2,"hagen,v et al. (1989) ",2.13,13,12,4,0,0,0,0,0,0,0,,17,
n-methyl-2-phenylbutan-1-amine,C11H17N1,084952-60-3,CCC(CNC)c1ccccc1,"hansch,c et al. (1995) ",2.82,11,17,1,0,0,0,0,0,0,0,,12,
"phenethylamine,n-methyl-a-isopropyl",C12H19N1,084952-61-4,CC(C)C(c1ccccc1)CNC,"hansch,c et al. (1995) ",3.12,12,19,1,0,0,0,0,0,0,0,,13,
"phenethylamine,n-me-a-isobutyl",C13H21N1,084952-62-5,CC(C)CC(c1ccccc1)CNC,"hansch,c et al. (1995) ",3.76,13,21,1,0,0,0,0,0,0,0,,14,
1-methoxy-4-[1-(4-methoxyphenyl)-2-nitroethyl]benzene,C16H17N1O4,085078-27-9,COc1ccc(cc1)C(C[N+]([O-])=O)c2ccc(OC)cc2,"hansch,c et al. (1995) ",3.57,16,17,1,4,0,0,0,0,0,0,,21,
"2,4(1h,3h)-pyrimidinedione, 1-[(4-chlorophenyl)m",C11H8Cl1F1N2O2,085093-33-0,Clc1ccc(CN2C=C(F)C(=O)NC2(=O))cc1,sangster (1994) ,1.64,11,8,2,2,0,0,1,1,0,0,,17,
"5-fluoro-1-[(4-methoxyphenyl)methyl]pyrimidine-2,4-dione",C12H11F1N2O3,085093-35-2,COc1ccc(CN2C=C(F)C(=O)NC2=O)cc1,sangster (1994) ,1.04,12,11,2,3,0,0,1,0,0,0,,18,
desmycarosylcarbomycin a,C30H47N1O12,085179-34-6,CC1CC(C(C(C(CC(=O)OC(CC2C(O2)C=CC1=O)C)OC(=O)C)OC)OC3C(C(C(C(O3)C)O)N(C)C)O)CC=O,"mcfarland,jw et al. (1997) ",0.3,30,47,1,12,0,0,0,0,0,0,,43,
"5,5-diethyl-1-propan-2-yl-1,3-diazinane-2,4,6-trione",C11H18N2O3,not,CCC1(CC)C(=O)NC(=O)N(C(C)C)C1=O,"hansch,c & leo,aj (1985) ",1.65,11,18,2,3,0,0,0,0,0,0,,16,
"5-ethyl-5-phenyl-2-propan-2-yloxy-1h-pyrimidine-4,6-dione",C15H18N2O3,085432-37-7,CCC1(C(=O)NC(=NC1=O)OC(C)C)c2ccccc2,sangster (1993) ,1.79,15,18,2,3,0,0,0,0,0,0,,20,
"5,5-diethyl-6-propan-2-yloxypyrimidine-2,4-dione",C11H18N2O3,085432-38-8,CCC1(CC)C(=O)NC(=O)N=C1OC(C)C,sangster (1993) ,1.86,11,18,2,3,0,0,0,0,0,0,,16,
"5-[(4-ethoxy-3-methoxyphenyl)methyl]pyrimidine-2,4-diamine",C14H18N4O2,085544-41-8,CCOc1ccc(Cc2cnc(N)nc2N)cc1OC,sangster (1993) ,1.34,14,18,4,2,0,0,0,0,0,0,,20,
"5-[(4-amino-3-methoxyphenyl)methyl]pyrimidine-2,4-diamine",C12H15N5O1,085544-45-2,COc1cc(Cc2cnc(N)nc2N)ccc1N,"hansch,c & leo,aj (1985) ",0.49,12,15,5,1,0,0,0,0,0,0,,18,
"5-[(4-methoxy-3-propoxyphenyl)methyl]pyrimidine-2,4-diamine",C15H20N4O2,085555-96-0,CCCOc1cc(Cc2cnc(N)nc2N)ccc1OC,sangster (1993) ,1.88,15,20,4,2,0,0,0,0,0,0,,21,
azolastone,C7H7Cl1N6O2,085622-95-3,NC(=O)c1ncn2C(=O)N(CCCl)N=Nc12,"hansch,c et al. (1995) ",-0.47,7,7,6,2,0,0,0,1,0,0,,16,
pfluorobenzylidenetbutylaminenoxide,C11H14F1N1O1,085623-70-7,CC(C)(C)N(=O)=Cc1ccc(F)cc1,"acree,we et al. (1984) ",1.42,11,14,1,1,0,0,1,0,0,0,,14,
"8-methylpyrido[2,1-b]pyrimidin-4-one",C9H8N2O1,085653-81-2,CC1=CC2=NC=CC(=O)N2C=C1,sangster (1994) ,0.56,9,8,2,1,0,0,0,0,0,0,,12,
"ethanamine, 1,1-dimethyl-, n-[(4-ethylphenyl)met",C13H19N1O1,085664-58-0,CCc1ccc(C=N(=O)C(C)(C)C)cc1,"acree,we et al. (1984) ",2.19,13,19,1,1,0,0,0,0,0,0,,15,
"1,2,4-triazin-5(4h)-one, 6-(4-fluorophenyl)-2,3-",C10H8F1N3O1S1,085683-39-2,CN1C(S)=NN=C(c2ccc(F)cc2)C1(=O),sangster (1994) ,2.38,10,8,3,1,1,0,1,0,0,0,,16,
1-cyclopropyl-6-fluoro-4-oxo-7-piperazin-1-ylquinoline-3-carboxylic acid,C17H18F1N3O3,085721-33-1,OC(=O)C1=CN(C2CC2)c3cc(N4CCNCC4)c(F)cc3C1=O,"takacs-novak,k et al. (1992) ",0.28,17,18,3,3,0,0,1,0,0,0,,24,
"1h-indole-3-carboxamide, n-methyl-",C10H10N2O1,085729-23-3,CNC(=O)c1c[nH]c2ccccc12,"yamagami,c et al. (1994) ",1.25,10,10,2,1,0,0,0,0,0,0,,13,
s-(phenylmethyl) (ethyl-(3-methylbutan-2-yl)amino)methanethioate,C15H23N1O1S1,085785-20-2,CCN(C(C)C(C)C)C(=O)SCc1ccccc1,"hansch,c et al. (1995) ",4.6,15,23,1,1,1,0,0,0,0,0,,18,
n-(3-aminophenyl)-2-phenylacetamide,C14H14N2O1,085856-32-2,Nc1cccc(NC(=O)Cc2ccccc2)c1,"yamagami,c et al. (1984) ",1.59,14,14,2,1,0,0,0,0,0,0,,17,
"xanthine,1,3-dipropyl-8-(2-amino-4-chlorophenyl)",C17H20Cl1N5O2,085872-51-1,CCCN1C2=C(C(=O)N(C1=O)CCC)NC(=N2)C3=C(C=C(C=C3)Cl)N,biobyte (1995) ,4.02,17,20,5,2,0,0,0,1,0,0,,25,
"urea,1,1-dimethyl-3-(4-propylphenyl)",C12H18N2O1,102587-47-3,CCCc1ccc(NC(=O)N(C)C)cc1,biobyte starlist (2009) ,2.55,12,18,2,1,0,0,0,0,0,0,,15,
"2,3,3',4,4'-pentachlorodiphenylether",C12H5Cl5O1,085918-31-6,Clc2c(Cl)c(Cl)ccc2Oc1ccc(Cl)c(Cl)c1,"kurz,j & ballschmiter,k (1999) ",6.51,12,5,0,1,0,0,0,5,0,0,,18,
"2,3,4,6-tetrachlorodiphenyl ether",C12H6Cl4O1,085918-33-8,c1ccc(Oc2c(Cl)c(Cl)c(Cl)cc2Cl)cc1,"kurz,j & ballschmiter,k (1999) ",5.88,12,6,0,1,0,0,0,4,0,0,,17,
"2,2',3,4,6'-pentachlorodiphenylether",C12H5Cl5O1,085918-35-0,c1cc(Cl)c(Oc2c(Cl)c(Cl)c(Cl)cc2)c(Cl)c1,"kurz,j & ballschmiter,k (1999) ",6.11,12,5,0,1,0,0,0,5,0,0,,18,
"2,2',3,4',5',6-hexachlorodiphenylether",C12H4Cl6O1,085918-37-2,c1c(Cl)c(Cl)c(Oc2c(Cl)cc(Cl)c(Cl)c2)c(Cl)c1,"kurz,j & ballschmiter,k (1999) ",6.47,12,4,0,1,0,0,0,6,0,0,,19,
"[3-hydroxy-8-[2-(4-hydroxy-6-oxooxan-2-yl)ethyl]-7-methyl-1,2,3,7,8,8a-hexahydronaphthalen-1-yl] 2-methylbutanoate",C23H34O6,085956-22-5,CCC(C)C(=O)OC1CC(O)C=C2C=CC(C)C(CCC3CC(O)CC(=O)O3)C12,"hansch,c et al. (1995) ",2.42,23,34,0,6,0,0,0,0,0,0,,29,
2-chloro-1-methyl-5-nitro-1h-imidazole,C4H4Cl1N3O2,086072-07-3,Cn1c(Cl)ncc1[N+]([O-])=O,"suwinski,j et al. (1985) ",0.62,4,4,3,2,0,0,0,1,0,0,,10,
1-(2-tert-butylquinolin-4-yl)-3-piperidin-4-ylpropan-1-ol,C21H30N2O1,086073-85-0,CC(C)(C)c1cc(C(O)CCC2CCNCC2)c3ccccc3n1,"mannhold,r et al. (1990) ",3.63,21,30,2,1,0,0,0,0,0,0,,24,
isomazole,C14H13N3O2S1,086315-52-8,COc1cc(ccc1c2[nH]c3cnccc3n2)[S](C)=O,"hansch,c et al. (1995) ",1.25,14,13,3,2,1,0,0,0,0,0,,20,
"2-(2,4-difluorophenyl)-1,3-bis(1,2,4-triazol-1-yl)propan-2-ol",C13H12F2N6O1,086386-73-4,OC(Cn1cncn1)(Cn2cncn2)c3ccc(F)cc3F,biobyte starlist (2009) ,0.5,13,12,6,1,0,0,2,0,0,0,,22,
6-fluoro-1-methylamino-7-(4-methylpiperazin-1-yl)-4-oxoquinoline-3-carboxylic acid,C16H19F1N4O3,086393-37-5,CNN1C=C(C(O)=O)C(=O)c2cc(F)c(cc12)N3CCN(C)CC3,"hansch,c et al. (1995) ",0.23,16,19,4,3,0,0,1,0,0,0,,24,
"2,2,2-trifluoro-n-(2-hydroxy-1,3,10-trimethoxy-9-oxo-6,7-dihydro-5h-benzo[d]heptalen-7-yl)acetamide",C21H20F3N1O6,086436-46-6,COC1=CC=C2C(=CC1=O)C(CCc3cc(OC)c(O)c(OC)c23)NC(=O)C(F)(F)F,"hansch,c et al. (1995) ",1.67,21,20,1,6,0,0,3,0,0,0,,31,
benzyloxycarbonyl mitomycin c,C23H24N4O7,086476-06-4,O=C4C5C(COC(=O)(N))C3(OC)N(C=5C(=O)C(C)=C4N)CC1N(C(=O)OCc2ccccc2)C31,"hansch,c & leo,aj (1985) ",1.34,23,24,4,7,0,0,0,0,0,0,,34,
hexaflumuron,C16H8Cl2F6N2O3,086479-06-3,FC(F)C(F)(F)Oc1c(Cl)cc(NC(=O)NC(=O)c2c(F)cccc2F)cc1Cl,"tomlin,c (1997) ",5.68,16,8,2,3,0,0,6,2,0,0,,29,
1-(4-methoxyphenyl)-2-(4-methylphenyl)sulfonylethanone,C16H16O4S1,086516-51-0,COc1ccc(cc1)C(=O)C[S](=O)(=O)c2ccc(C)cc2,"wang,l et al. (1993) ",2.47,16,16,0,4,1,0,0,0,0,0,,21,
"4-(4-aminophenyl)sulfonyl-n,n-dimethylaniline",C14H16N2O2S1,086552-09-2,CN(C)c1ccc(cc1)[S](=O)(=O)c2ccc(N)cc2,"altomare,c et al. (1991) ",1.99,14,16,2,2,1,0,0,0,0,0,,19,
"n(n-me-(decoxy)carbamylthio)methomyl""",C17H33N3O4S2,086569-89-3,CC(=NOC(=O)N(C)SN(C)C(=O)OCCCCCCCCCC)SC,"hansch,c & leo,aj (1985) ",6.2,17,33,3,4,2,0,0,0,0,0,,26,
"n(n-me(cyhexo)carbamylthio)methomyl""",C13H23N3O4S2,086569-90-6,CC(=NOC(=O)N(C)SN(C)C(=O)OC1CCCCC1)SC,"hansch,c & leo,aj (1985) ",3.6,13,23,3,4,2,0,0,0,0,0,,22,
"ethanimidothioic acid, n-[[[[(acetylmethylamino)",C8H15N3O3S2,086569-91-7,CSC(C)=NOC(=O)N(C)SN(C)C(=O)(C),sangster (1993) ,1.3,8,15,3,3,2,0,0,0,0,0,,16,
"n-(n-me-ethylcarbamylthio)methomyl""",C9H17N3O3S2,086569-92-8,CC(=NOC(=O)N(C)SN(C)C(=O)CC)SC,"hansch,c & leo,aj (1985) ",1.6,9,17,3,3,2,0,0,0,0,0,,17,
"n(n-me-pr carbamylthio)methomyl""",C10H19N3O3S2,086569-93-9,CC(=NOC(=O)N(C)SN(C)C(=O)CCC)SC,"hansch,c & leo,aj (1985) ",2.2,10,19,3,3,2,0,0,0,0,0,,18,
"n(n-me-ipr carbamylthio)methomyl""",C10H19N3O3S2,086569-94-0,CC(=NOC(=O)N(C)SN(C)C(=O)C(C)C)SC,"hansch,c & leo,aj (1985) ",2.2,10,19,3,3,2,0,0,0,0,0,,18,
"n(n-bu-me carbamylthio)methomyl""",C11H21N3O3S2,086569-95-1,CN(SN(CCCC)C(=O)(C))C(=O)ON=C(C)SC,"hansch,c & leo,aj (1985) ",2.4,11,21,3,3,2,0,0,0,0,0,,19,
"3-buten-2-one,1,1,1-trifluoro-4-phenyl-",C10H7F3O1,086571-25-7,O=C(C=Cc1ccccc1)C(F)(F)F,"yamagami,c et al. (1998) ",3.01,10,7,0,1,0,0,3,0,0,0,,14,
imibenconazole,C17H13Cl3N4S1,086598-92-7,Clc1ccc(CSC(Cn2cncn2)=Nc3ccc(Cl)cc3Cl)cc1,"tomlin,c (1997) ",4.94,17,13,4,0,1,0,0,3,0,0,,25,
"24-cholanamide, 3,7,12-trihydroxy-n-(phenylmethy",C31H47N1O4,086678-86-6,C1CC2(C)C3CC(O)C4(C)C(C(C)CCC(=O)NCc5ccccc5)CCC4C3C(O)CC2CC1O,sangster (1994) ,3.54,31,47,1,4,0,0,0,0,0,0,,36,
propisochlor,C15H22Cl1N1O2,086763-47-5,CCc1cccc(C)c1N(COC(C)C)C(=O)CCl,"tomlin,c (1997) ",3.5,15,22,1,2,0,0,0,1,0,0,,19,
fluazuron,C20H10Cl2F5N3O3,086811-58-7,Fc1cccc(F)c1C(=O)NC(=O)Nc2ccc(Cl)c(Oc3ncc(cc3Cl)C(F)(F)F)c2,"tomlin,c (1994) ",5.1,20,10,3,3,0,0,5,2,0,0,,33,
"ethanol, 2-[(6-amino-3-chloro-5-nitropyrazinyl)a",C6H8Cl1N5O3,086845-62-7,Clc1c(NCCO)nc(N)c(N(=O)(=O))n1,biobyte (1995) ,0.12,6,8,5,3,0,0,0,1,0,0,,15,
n-[2-[[3-(2-cyanophenoxy)-2-hydroxypropyl]amino]ethyl]-2-(4-hydroxyphenyl)acetamide,C20H23N3O4,086880-51-5,OC(CNCCNC(=O)Cc1ccc(O)cc1)COc2ccccc2C#N,sangster (1994) ,0.92,20,23,3,4,0,0,0,0,0,0,,27,
"benzobicyclo(221)heptene,2en-pramino",C14H19N1,086992-67-8,CCCNC1C2c3c(C(C2)C1)cccc3,"hansch,c & leo,aj (1985) ",3.13,14,19,1,0,0,0,0,0,0,0,,15,
"benzobicyclo(221)heptene,2en-etamino",C13H17N1,086992-68-9,CCNC1C2c3c(C(C2)C1)cccc3,"hansch,c & leo,aj (1985) ",2.62,13,17,1,0,0,0,0,0,0,0,,14,
"9-oxabenzobicyclo(221)hepten,2en-meam",C11H13N1O1,086992-70-3,CNC1C2OC(c3c2cccc3)C1,"hansch,c & leo,aj (1985) ",0.95,11,13,1,1,0,0,0,0,0,0,,13,
"furazan, chloromethyl-, 5-oxide",C3H3Cl1N2O2,086988-90-1,[O-][n+]1onc(CCl)c1,"calvino,r et al. (1992) ",1.02,3,3,2,2,0,0,0,1,0,0,,8,
"benzobicyclo(221)heptene,9en-meamino",C12H15N1,086992-69-0,CNC1C2c3c(C1CC2)cccc3,"hansch,c & leo,aj (1985) ",2.37,12,15,1,0,0,0,0,0,0,0,,13,
"6-[2-[4-[bis(4-fluorophenyl)methylidene]piperidin-1-yl]ethyl]-7-methyl-[1,3]thiazolo[2,3-b]pyrimidin-5-one",C27H25F2N3O1S1,087051-43-2,CC1=C(CCN2CCC(CC2)=C(c3ccc(F)cc3)c4ccc(F)cc4)C(=O)N5C=CSC5=N1,biobyte (1995) ,5.2,27,25,3,1,1,0,2,0,0,0,,34,
n-(4-ethylphenyl)diazenyl-n-methylacetamide,C11H15N3O1,087072-64-8,CCc1ccc(cc1)N=NN(C)C(C)=O,"hansch,c & leo,aj (1985) ",3.36,11,15,3,1,0,0,0,0,0,0,,15,
n-(4-fluorophenyl)diazenyl-n-methylacetamide,C9H10F1N3O1,087072-65-9,CN(N=Nc1ccc(F)cc1)C(C)=O,"hansch,c & leo,aj (1985) ",2.77,9,10,3,1,0,0,1,0,0,0,,14,
"propan-2-yl n-(3,4-diethoxyphenyl)carbamate",C14H21N1O4,087130-20-9,CCOc1ccc(NC(=O)OC(C)C)cc1OCC,"takahashi,k et al. (1988) ",2.91,14,21,1,4,0,0,0,0,0,0,,19,
"2h-1,3,2-oxazaphosphorin-2-amine,3-chloro-n,n-bi",C7H14Cl3N2O2P1,087154-30-1,C1COP(=O)(N(CCCl)CCCl)N(Cl)C1,sangster (1994) ,1.94,7,14,2,2,0,1,0,3,0,0,,15,
haloxyfop-etotyl,C19H19Cl1F3N1O5,087237-48-7,CCOCCOC(=O)C(C)Oc1ccc(Oc2ncc(cc2Cl)C(F)(F)F)cc1,"tomlin,c (1994) ",4.33,19,19,1,5,0,0,3,1,0,0,,29,