Names,Formula,CAS No,SMILES,Reference,Exp logp,C,H,N,O,S,P,F,Cl,Br,I,,,
diethyl 2-[(5-nitrofuran-2-yl)methylidene]propanedioate,C12H13N1O7,069513-13-9,CCOC(=O)C(=Cc1oc(cc1)[N+]([O-])=O)C(=O)OCC,"balaz,s et al. (1987) ",2.5,12,13,1,7,0,0,0,0,0,0,,20,
2-[(5-iodofuran-2-yl)methylidene]propanedinitrile,C8H3I1N2O1,069527-40-8,Ic1oc(cc1)C=C(C#N)C#N,"balaz,s et al. (1985) ",2.42,8,3,2,1,0,0,0,0,0,1,,12,
"5-propyl-1,3,4-oxadiazol-2-amine",C5H9N3O1,069741-89-5,CCCc1oc(N)nn1,"hansch,c & leo,aj (1985) ",0.23,5,9,3,1,0,0,0,0,0,0,,9,
"5-(2-methylpropyl)-1,3,4-oxadiazol-2-amine",C6H11N3O1,069741-90-8,CC(C)Cc1oc(N)nn1,"hansch,c & leo,aj (1985) ",0.4,6,11,3,1,0,0,0,0,0,0,,10,
"5-tert-butyl-1,3,4-oxadiazol-2-amine",C6H11N3O1,069741-92-0,CC(C)(C)c1oc(N)nn1,"hansch,c & leo,aj (1985) ",0.48,6,11,3,1,0,0,0,0,0,0,,10,
"5-pentyl-1,3,4-oxadiazol-2-amine",C7H13N3O1,069741-93-1,CCCCCc1oc(N)nn1,"hansch,c & leo,aj (1985) ",1.1,7,13,3,1,0,0,0,0,0,0,,11,
"5-hexyl-1,3,4-oxadiazol-2-amine",C8H15N3O1,069741-94-2,CCCCCCc1oc(N)nn1,"hansch,c & leo,aj (1985) ",1.43,8,15,3,1,0,0,0,0,0,0,,12,
"2,3,3',4,4',5'-hexachlorobiphenyl #2",C12H4Cl6,069782-90-7,c1(c2ccc(Cl)c(Cl)c2Cl)cc(Cl)c(Cl)c(Cl)c1,biobyte starlist (2009) ,7.6,12,4,0,0,0,0,0,6,0,0,,18,
halooxyfop-p-methyl,C16H13Cl1F3N1O4,072619-32-0,O=C(OC)C(C)Oc1ccc(Oc2c(Cl)cc(C(F)(F)F)cn2)cc1,"tomlin,c (1997) ",4.05,16,13,1,4,0,0,3,1,0,0,,25,
butyl 2-[4-[5-(trifluoromethyl)pyridin-2-yl]oxyphenoxy]propanoate,C19H20F3N1O4,079241-46-6,CCCCOC(=O)C(C)Oc1ccc(Oc2ccc(cn2)C(F)(F)F)cc1,"tomlin,c (1997) ",4.5,19,20,1,4,0,0,3,0,0,0,,27,
"1h-indole-2-carboxamide, n-ethyl-",C11H12N2O1,069808-72-6,CCNC(=O)c1[nH]c2ccccc2c1,"yamagami,c et al. (1994) ",2.32,11,12,2,1,0,0,0,0,0,0,,14,
n1(me-meo)n3(p-pheto)phenylurea,C17H20N2O3,069922-40-3,CN(OC)C(=O)Nc1ccc(OCCc2ccccc2)cc1,"hansch,c & leo,aj (1985) ",4.5,17,20,2,3,0,0,0,0,0,0,,22,
n-(diethylamino-pyrrolidin-1-ylphosphoryl)-n-ethylethanamine,C12H28N3O1P1,069981-38-0,CCN(CC)[P](=O)(N(CC)CC)N1CCCC1,"debord,j & labadie,m (1985) ",2.39,12,28,3,1,0,1,0,0,0,0,,17,
2-propoxypyrazine,C7H10N2O1,070090-28-7,CCCOc1cnccn1,"yamagami,c et al. (1990a) ",1.84,7,10,2,1,0,0,0,0,0,0,,10,
[cyano-[3-(phenoxy)phenyl]methyl] 2-[4-(difluoromethoxy)phenyl]-3-methylbutanoate,C26H23F2N1O4,070124-77-5,CC(C)C(C(=O)OC(C#N)c1cccc(Oc2ccccc2)c1)c3ccc(OC(F)F)cc3,"hansch,c et al. (1995) ",6.2,26,23,1,4,0,0,2,0,0,0,,33,
"phenylacetic acid,2-(2',3'-dichloro)anilino",C14H11Cl2N1O2,070172-32-6,c1cc(CC(=O)(O))c(Nc2c(Cl)c(Cl)ccc2)cc1,"hansch,c et al. (1995) ",4.86,14,11,1,2,0,0,0,2,0,0,,19,
2-anilinophenylacetic acid,C14H13N1O2,070172-33-7,OC(=O)Cc1ccccc1Nc2ccccc2,"hansch,c et al. (1995) ",3.49,14,13,1,2,0,0,0,0,0,0,,17,
triclamide,C13H16Cl3N1O3,not,CCCCOC(C(Cl)(Cl)Cl)NC(=O)c1c(O)cccc1,"hansch,c et al. (1995) ",4.45,13,16,1,3,0,0,0,3,0,0,,20,
"1-(2-methylphenyl)pyrrolidine-2,5-dione",C11H11N1O2,070290-53-8,Cc1ccccc1N2C(=O)CCC2=O,"hansch,c & leo,aj (1985) ",0.29,11,11,1,2,0,0,0,0,0,0,,14,
"3-ethyl-2,6-dimethylpyrido[2,1-b]pyrimidin-4-one",C12H14N2O1,070381-44-1,CCC1=C(C)N=C2C=CC=C(C)N2C1=O,sangster (1994) ,1.86,12,14,2,1,0,0,0,0,0,0,,15,
"4h-pyrido[1,2-a]pyrimidin-4-one, 3-ethyl-2,6-dim",C12H18N2O1,070381-46-3,C1CCC2=NC(C)=C(CC)C(=O)N2C1C,sangster (1994) ,1.43,12,18,2,1,0,0,0,0,0,0,,15,
"2-ethyl-3,6-dimethylpyrido[2,1-b]pyrimidin-4-one",C12H14N2O1,070381-44-1,CCC1=C(C)C(=O)N2C(=CC=CC2=N1)C,sangster (1994) ,1.86,12,14,2,1,0,0,0,0,0,0,,15,
"3-ethyl-6-methyl-2-propylpyrido[2,1-b]pyrimidin-4-one",C14H18N2O1,070413-35-3,CCCC1=C(CC)C(=O)N2C(=CC=CC2=N1)C,"hansch,c et al. (1995) ",2.37,14,18,2,1,0,0,0,0,0,0,,17,
1-ethyl-6-fluoro-7-(4-methylpiperazin-1-yl)-4-oxoquinoline-3-carboxylic acid,C17H20F1N3O3,070458-92-3,CCN1C=C(C(O)=O)C(=O)c2cc(F)c(cc12)N3CCN(C)CC3,"hansch,c et al. (1995) ",0.27,17,20,3,3,0,0,1,0,0,0,,24,
1-ethyl-6-fluoro-4-oxo-7-piperazin-1-ylquinoline-3-carboxylic acid,C16H18F1N3O3,070458-96-7,CCN1C=C(C(O)=O)C(=O)c2cc(F)c(cc12)N3CCNCC3,"hansch,c et al. (1995) ",-1.03,16,18,3,3,0,0,1,0,0,0,,23,
3-(3-tert-butylphenyl)-1-methoxy-1-methylurea,C13H20N2O2,070477-14-4,CON(C)C(=O)Nc1cccc(c1)C(C)(C)C,"hansch,c & leo,aj (1985) ",3.21,13,20,2,2,0,0,0,0,0,0,,17,
"1-[3-(4,6-diamino-2,2-dimethyl-1,3,5-triazin-1-yl)phenyl]ethanone",C13H17N5O1,070579-34-9,CC(=O)c1cccc(c1)N2C(=NC(=NC2(C)C)N)N,"hansch,c & leo,aj (1985) ",-0.22,13,17,5,1,0,0,0,0,0,0,,19,
"dibenzofuran, 1,2,4,6,9-pentachloro-",C12H3Cl5O1,070648-24-7,Clc1ccc(Cl)c2c1oc3c(Cl)cc(Cl)c(Cl)c23,"sijm,dthm et al. (1989) ",6.59,12,3,0,1,0,0,0,5,0,0,,18,
"benzamide, 2-chloro-n,n-bis(1-methylethyl)-",C13H18Cl1N1O1,070657-63-5,CC(C)N(C(C)C)C(=O)c1ccccc1Cl,"suryanarayana,mvs et al. (1991) ",3,13,18,1,1,0,0,0,1,0,0,,16,
"3-(4-tert-butylphenyl)-n,n-dimethyl-3-phenylpropan-1-amine",C21H29N1,070785-03-4,CN(C)CCC(c1ccccc1)c2ccc(cc2)C(C)(C)C,sangster (1993) ,5.1,21,29,1,0,0,0,0,0,0,0,,22,
"4-(4-tert-butylphenyl)-n,n-dimethyl-4-phenylbutan-1-amine",C22H31N1,070785-06-7,CN(C)CCCC(c1ccccc1)c2ccc(cc2)C(C)(C)C,"hansch,c & leo,aj (1985) ",5.72,22,31,1,0,0,0,0,0,0,0,,23,
"n-[(4-tert-butylphenyl)methyl]-n',n'-dimethyl-n-phenylethane-1,2-diamine",C21H30N2,070785-07-8,CN(C)CCN(Cc1ccc(cc1)C(C)(C)C)c2ccccc2,"hansch,c & leo,aj (1985) ",5.34,21,30,2,0,0,0,0,0,0,0,,23,
"1,1-dimethyl-3-[3-(2-phenylethoxy)phenyl]urea",C17H20N2O2,070859-35-7,CN(C)C(=O)Nc1cccc(OCCc2ccccc2)c1,"hansch,c & leo,aj (1985) ",3.39,17,20,2,2,0,0,0,0,0,0,,21,
3-(1-adamantyl)-2-aminopropanoic acid,C13H21N1O2,070873-69-7,NC(CC12CC3CC(CC(C3)C1)C2)C(O)=O,"hansch,c et al. (1995) ",0.43,13,21,1,2,0,0,0,0,0,0,,16,
"[3,4'-bipyridine]-5-carbonitrile,6-chloro-",C11H6Cl1N3,070959-58-9,c1c(c2cnc(Cl)c(C(#N))c2)ccnc1,"hagen,v et al. (1989) ",1.74,11,6,3,0,0,0,0,1,0,0,,15,
2-methoxy-5-pyridin-4-ylpyridine-3-carbonitrile,C12H9N3O1,070959-61-4,COc1ncc(cc1C#N)c2ccncc2,sangster (1994) ,2.02,12,9,3,1,0,0,0,0,0,0,,16,
"methyl 2-(3-nitro-1,2,4-triazol-1-yl)acetate",C5H6N4O4,070965-23-0,COC(=O)Cn1cnc(n1)[N+]([O-])=O,"hansch,c et al. (1995) ",-0.38,5,6,4,4,0,0,0,0,0,0,,13,
"4-amino-1-[2,3-dihydroxy-4-(hydroxymethyl)cyclopentyl]pyrimidin-2-one",C10H15N3O4,not,NC1=NC(=O)N(C=C1)C2CC(CO)C(O)C2O,biobyte (1995) ,-2.41,10,15,3,4,0,0,0,0,0,0,,17,
n-[1-[2-(4-ethyl-5-oxotetrazol-1-yl)ethyl]-4-(methoxymethyl)piperidin-4-yl]-n-phenylpropanamide,C21H32N6O3,071195-58-9,CCN1N=NN(CCN2CCC(CC2)(COC)N(C(=O)CC)c3ccccc3)C1=O,"hansch,c et al. (1995) ",2.16,21,32,6,3,0,0,0,0,0,0,,30,
"5-ethylsulfonyl-1,2,3-trimethoxybenzene",C11H16O5S1,071203-60-6,CC[S](=O)(=O)c1cc(OC)c(OC)c(OC)c1,"hansch,c & leo,aj (1985) ",1.05,11,16,0,5,1,0,0,0,0,0,,17,
"1,2,3-trimethoxy-5-(3-methylbutylsulfonyl)benzene",C14H22O5S1,071203-61-7,COc1cc(cc(OC)c1OC)[S](=O)(=O)CCC(C)C,"hansch,c & leo,aj (1985) ",2.12,14,22,0,5,1,0,0,0,0,0,,20,
"1,2,3-trimethoxy-5-propylsulfonylbenzene",C12H18O5S1,071203-62-8,CCC[S](=O)(=O)c1cc(OC)c(OC)c(OC)c1,"hansch,c & leo,aj (1985) ",1.56,12,18,0,5,1,0,0,0,0,0,,18,
"1-phenyl-2-(3,4,5-trimethoxyphenyl)sulfonylethanol",C17H20O6S1,071203-63-9,COc1cc(cc(OC)c1OC)[S](=O)(=O)CC(O)c2ccccc2,"hansch,c & leo,aj (1985) ",1.65,17,20,0,6,1,0,0,0,0,0,,24,
"n-methyl-n-[2-(3,4,5-trimethoxyphenyl)sulfonylethyl]butan-1-amine",C16H27N1O5S1,071203-64-0,CCCCN(C)CC[S](=O)(=O)c1cc(OC)c(OC)c(OC)c1,"hansch,c & leo,aj (1985) ",2.05,16,27,1,5,1,0,0,0,0,0,,23,
"n-butyl-n-[2-(3,4,5-trimethoxyphenyl)sulfonylethyl]butan-1-amine",C19H33N1O5S1,071203-66-2,CCCCN(CCCC)CC[S](=O)(=O)c1cc(OC)c(OC)c(OC)c1,"hansch,c & leo,aj (1985) ",3.55,19,33,1,5,1,0,0,0,0,0,,26,
fenoxaprop-ethyl,C18H16Cl1N1O5,071283-80-2,CCOC(=O)C(C)Oc1ccc(Oc2oc3cc(Cl)ccc3n2)cc1,"tomlin,c (1997) ",4.58,18,16,1,5,0,0,0,1,0,0,,25,
"2,2,2-trifluoro-n-(1,2,3,9-tetramethoxy-10-oxo-6,7-dihydro-5h-benzo[d]heptalen-7-yl)acetamide",C22H22F3N1O6,071324-48-6,COC1=CC2=C(C=CC1=O)c3c(CCC2NC(=O)C(F)(F)F)cc(OC)c(OC)c3OC,"hansch,c et al. (1995) ",2.08,22,22,1,6,0,0,3,0,0,0,,32,
"butanoic acid, 4-(3-chloro-4-methoxybenzoyl)-",C12H13Cl1O4,071354-31-9,COc1ccc(cc1Cl)C(=O)CCCC(O)=O,"kuchar,m et al. (1985) ",2.17,12,13,0,4,0,0,0,1,0,0,,17,
"n,n-dimethyl-4-methylaminobenzenesulfonamide",C9H14N2O2S1,077812-86-3,CNc1ccc(cc1)[S](=O)(=O)N(C)C,"hansch,c & leo,aj (1985) ",1.43,9,14,2,2,1,0,0,0,0,0,,14,
chlorfluazuron,C20H9Cl3F5N3O3,071422-67-8,Fc1cccc(F)c1C(=O)NC(=O)Nc2cc(Cl)c(Oc3ncc(cc3Cl)C(F)(F)F)c(Cl)c2,"tomlin,c (1994) ",5.8,20,9,3,3,0,0,5,3,0,0,,34,
methyl 1-hexyl-5-oxopyrrolidine-3-carboxylate,C12H21N1O3,071548-53-3,CCCCCCN1CC(CC1=O)C(=O)OC,"sasaki,h et al. (1988) ",2.3,12,21,1,3,0,0,0,0,0,0,,16,
pyrazoxyfen,C20H16Cl2N2O3,071561-11-0,Cn1nc(C)c(C(=O)c2ccc(Cl)cc2Cl)c1OCC(=O)c3ccccc3,"hansch,c et al. (1995) ",3.69,20,16,2,3,0,0,0,2,0,0,,27,
"2,2',3,4,4',5'-hexachlorodiphenylether",C12H4Cl6O1,071585-36-9,c1c(Cl)c(Cl)c(Cl)c(Oc2c(Cl)cc(Cl)c(Cl)c2)c1,"kurz,j & ballschmiter,k (1999) ",7.01,12,4,0,1,0,0,0,6,0,0,,19,
"2,2',3,4,4'-pentachlorodiphenylether",C12H5Cl5O1,071585-37-0,c1c(Cl)cc(Cl)c(Oc2c(Cl)c(Cl)c(Cl)cc2)c1,"kurz,j & ballschmiter,k (1999) ",6.28,12,5,0,1,0,0,0,5,0,0,,18,
"2,2',3,4,4',5-hexachlorodiphenylether",C12H4Cl6O1,071585-38-1,c1c(Cl)cc(Cl)c(Oc2c(Cl)c(Cl)c(Cl)c(Cl)c2)c1,"kurz,j & ballschmiter,k (1999) ",6.72,12,4,0,1,0,0,0,6,0,0,,19,
"2,2',3,3',4,4'-hexachlorodiphenylether",C12H4Cl6O1,071585-39-2,c1c(Cl)c(Cl)c(Cl)c(Oc2c(Cl)c(Cl)c(Cl)cc2)c1,"kurz,j & ballschmiter,k (1999) ",6.82,12,4,0,1,0,0,0,6,0,0,,19,
"2,2',3,3',4,4',5-heptachloro-diph ether",C12H3Cl7O1,071585-40-5,c1c(Cl)c(Cl)c(Cl)c(Oc2c(Cl)c(Cl)c(Cl)c(Cl)c2)c1,"kurz,j & ballschmiter,k (1999) ",7.28,12,3,0,1,0,0,0,7,0,0,,20,
"methyl 2-[(2,6-dimethylphenyl)-(2-phenylacetyl)amino]propanoate",C20H23N1O3,071626-11-4,COC(=O)C(C)N(C(=O)Cc1ccccc1)c2c(C)cccc2C,"hansch,c et al. (1995) ",3.4,20,23,1,3,0,0,0,0,0,0,,24,
"1,2,3,9-tetrachlorodibenzo-p-dioxin",C12H4Cl4O2,071669-26-6,Clc1cccc2Oc3cc(Cl)c(Cl)c(Cl)c3Oc12,biobyte (1995) ,6.39,12,4,0,2,0,0,0,4,0,0,,18,
4-amino-n-[(1-ethylpyrrolidin-2-yl)methyl]-5-ethylsulfonyl-2-methoxybenzamide,C17H27N3O4S1,071675-85-9,CCN1CCCC1CNC(=O)c2cc(c(N)cc2OC)[S](=O)(=O)CC,"mannhold,r et al. (1990) ",1.1,17,27,3,4,1,0,0,0,0,0,,25,
"cefotiam,pivaloyloxymethyl ester",C24H33N9O6S3,071809-37-5,CC(C)(C)C(=O)OC1(C2N(C1=O)C(=C(CS2)CSC3=NN=NN3CCN(C)C)C(=O)OC)NC(=O)CC4=CSC(=N4)N,biobyte (1995) ,1.57,24,33,9,6,3,0,0,0,0,0,,42,
"2,2',4,4',5,5'-hexachlorodiphenylether",C12H4Cl6O1,071859-30-8,Clc2cc(Cl)c(Cl)cc2Oc1cc(Cl)c(Cl)cc1Cl,"kurz,j & ballschmiter,k (1999) ",6.72,12,4,0,1,0,0,0,6,0,0,,19,
4-pyridinebutanamide,C9H12N2O1,071879-58-8,NC(=O)CCCc1ccncc1,"hansch,c et al. (1995) ",-0.09,9,12,2,1,0,0,0,0,0,0,,12,
"1,2,3,6,7-pentachlorodibenzodioxin",C12H3Cl5O2,071925-15-0,Clc1ccc2Oc3c(Cl)c(Cl)c(Cl)cc3Oc2c1Cl,biobyte (1995) ,6.74,12,3,0,2,0,0,0,5,0,0,,19,
"dibenzodioxin,1,2,3,7,9-pentachloro",C12H3Cl5O2,071925-17-2,c32cc(Cl)c(Cl)c(Cl)c3Oc1c(c(Cl)cc(Cl)c1)O2,biobyte starlist (2009) ,6.4,12,3,0,2,0,0,0,5,0,0,,19,
"artemisinine,methyl ether (alpha)",C16H26O5,071963-77-4,O1C2C34OOC(C)(O2)CCC3C(C)CCC4C(C)C1OC,"avery,ma et al. (1995) ",3.53,16,26,0,5,0,0,0,0,0,0,,21,
3-methyl-2-phenylchromen-4-one,C16H12O2,071972-66-2,CC1=C(Oc2ccccc2C1=O)c3ccccc3,pomona (1987) ,3.92,16,12,0,2,0,0,0,0,0,0,,18,
71990-00-6,C20H29N1O2,071990-00-6,CCC12CCN(CC3(O)CC3)C(Cc4ccc(O)cc14)C2(C)C,sangster (1994) ,3.82,20,29,1,2,0,0,0,0,0,0,,23,
"2,3-pyrazinedicarbonitrile, 5-chloro-",C6H1Cl1N4,072111-57-0,Clc1cnc(C#N)c(n1)C#N,"yamagami,c et al. (1990) ",0.95,6,1,4,0,0,0,0,1,0,0,,11,
"2,3-pyrazinedicarbonitrile, 5-chloro-6-ethyl-",C8H5Cl1N4,072111-58-1,CCc1nc(C#N)c(nc1Cl)C#N,"yamagami,c et al. (1991) ",1.79,8,5,4,0,0,0,0,1,0,0,,13,
"2,3-pyrazinedicarbonitrile, 5-butyl-6-chloro-",C10H9Cl1N4,072111-60-5,CCCCc1nc(C#N)c(nc1Cl)C#N,"yamagami,c et al. (1991) ",2.89,10,9,4,0,0,0,0,1,0,0,,15,
"5-butyl-6-methylpyrazine-2,3-dicarbonitrile",C11H12N4,072112-24-4,CCCCc1nc(C#N)c(nc1C)C#N,"yamagami,c et al. (1990) ",2.3,11,12,4,0,0,0,0,0,0,0,,15,
n-(3-acetylphenyl)-2-phenylacetamide,C16H15N1O2,072116-69-9,CC(=O)c1cccc(NC(=O)Cc2ccccc2)c1,"yamagami,c et al. (1984) ",2.62,16,15,1,2,0,0,0,0,0,0,,19,
"2,3-pyrazinedicarbonitrile, 5-chloro-6-methyl-",C7H3Cl1N4,072126-54-6,Cc1nc(C#N)c(nc1Cl)C#N,"yamagami,c et al. (1991) ",1.29,7,3,4,0,0,0,0,1,0,0,,12,
"piperidine, 1-(4,4-dimethyl-1-phenylcyclohexyl)-",C19H29N1,072165-35-6,CC1(C)CCC(CC1)(N2CCCCC2)c3ccccc3,sangster (1993) ,6.39,19,29,1,0,0,0,0,0,0,0,,20,
b24c8-benzo crown ether,C20H32O8,072216-45-6,c1cc2OCCOCCOCCOCCOCCOCCOCCOc2cc1,"stolwijk,tb et al. (1989) ",0.45,20,32,0,8,0,0,0,0,0,0,,28,
"1-(3,3,5-trimethyl-1-phenylcyclohexyl)piperidine",C20H31N1,072242-01-4,CC1CC(C)(C)CC(C1)(N2CCCCC2)c3ccccc3,sangster (1993) ,6.35,20,31,1,0,0,0,0,0,0,0,,21,
2-cyclohexyl-1-piperidin-1-ylethanone,C13H23N1O1,072299-07-1,O=C(CC1CCCCC1)N2CCCCC2,"suryanarayana,mvs et al. (1991) ",3.2,13,23,1,1,0,0,0,0,0,0,,15,
"1h-benzimidazol-2-amine, 6-[(hydroxyimino)phenyl",C17H18N4O3S1,072301-79-2,CC(C)S(=O)(=O)n1c(N)nc2ccc(C(=NO)c3ccccc3)cc12,pomona (1987) ,3.1,17,18,4,3,1,0,0,0,0,0,,25,
2-diethylamino-n-(phenylmethyl)acetamide,C13H20N2O1,072336-16-4,CCN(CC)CC(=O)NCc1ccccc1,sangster (1993) ,2.14,13,20,2,1,0,0,0,0,0,0,,16,
2-(dipropylamino)-n-(phenylmethyl)acetamide,C15H24N2O1,072336-17-5,CCCN(CCC)CC(=O)NCc1ccccc1,sangster (1993) ,3.11,15,24,2,1,0,0,0,0,0,0,,18,
n-(phenylmethyl)-2-piperidin-1-ylacetamide,C14H20N2O1,072336-19-7,O=C(CN1CCCCC1)NCc2ccccc2,sangster (1993) ,2.27,14,20,2,1,0,0,0,0,0,0,,17,
2-morpholin-4-yl-n-(phenylmethyl)acetamide,C13H18N2O2,072336-20-0,O=C(CN1CCOCC1)NCc2ccccc2,sangster (1993) ,0.67,13,18,2,2,0,0,0,0,0,0,,17,
3-tridecylphenol,C19H32O1,072424-02-3,CCCCCCCCCCCCCc1cccc(O)c1,sangster (1993) ,8.84,19,32,0,1,0,0,0,0,0,0,,20,
"14-benzdiazpin-2-one,1me5-(4meoph)7cl",C17H15Cl1N2O2,072430-63-8,CN1C(=O)CN=C(c3ccc(OC)cc3)c2c1ccc(Cl)c2,"hansch,c & leo,aj (1985) ",3.15,17,15,2,2,0,0,0,1,0,0,,22,
ethyl n-[2-[4-(phenoxy)phenoxy]ethyl]carbamate,C17H19N1O4,079127-80-3,CCOC(=O)NCCOc1ccc(Oc2ccccc2)cc1,"hansch,c et al. (1995) ",4.3,17,19,1,4,0,0,0,0,0,0,,22,
n-(7-nitro-9h-fluoren-2-yl)acetamide,C15H12N2O3,072570-99-1,CC(=O)Nc1ccc2c(Cc3cc(ccc23)[N+]([O-])=O)c1,"debnath,ak et al. (1991) ",3.08,15,12,2,3,0,0,0,0,0,0,,20,
"1,3-dimethyl-3-nitroso-1-phenylurea",C9H11N3O2,072586-68-6,CN(N=O)C(=O)N(C)c1ccccc1,"hansch,c & leo,aj (1985) ",1.58,9,11,3,2,0,0,0,0,0,0,,14,
"1-(2-fluorophenyl)pyrrolidine-2,5-dione",C10H8F1N1O2,072601-44-6,Fc1ccccc1N2C(=O)CCC2=O,"hansch,c et al. (1995) ",0.22,10,8,1,2,0,0,1,0,0,0,,14,
"1-(2-iodophenyl)pyrrolidine-2,5-dione",C10H8I1N1O2,072601-45-7,Ic1ccccc1N2C(=O)CCC2=O,"hansch,c et al. (1995) ",0.8,10,8,1,2,0,0,0,0,0,1,,14,
"1-(3-iodophenyl)pyrrolidine-2,5-dione",C10H8I1N1O2,072601-46-8,Ic1cccc(c1)N2C(=O)CCC2=O,"hansch,c et al. (1995) ",1.39,10,8,1,2,0,0,0,0,0,1,,14,
"1-(3-ethylphenyl)pyrrolidine-2,5-dione",C12H13N1O2,072601-47-9,CCc1cccc(c1)N2C(=O)CCC2=O,"hansch,c et al. (1995) ",1.04,12,13,1,2,0,0,0,0,0,0,,15,
"methyl 3-(2,5-dioxopyrrolidin-1-yl)benzoate",C12H11N1O4,072601-52-6,COC(=O)c1cccc(c1)N2C(=O)CCC2=O,"hansch,c et al. (1995) ",0.36,12,11,1,4,0,0,0,0,0,0,,17,
"1-(4-ethylphenyl)pyrrolidine-2,5-dione",C12H13N1O2,072601-54-8,CCc1ccc(cc1)N2C(=O)CCC2=O,"hansch,c et al. (1995) ",1.1,12,13,1,2,0,0,0,0,0,0,,15,
methyl 3-methyl-2-phenylbutanoate,C12H16O2,072615-27-1,COC(=O)C(C(C)C)c1ccccc1,"yang,h et al. (1987) ",3.33,12,16,0,2,0,0,0,0,0,0,,14,
2-methyl-4-(2-methylaminoethoxy)-5-propan-2-ylphenol,C13H21N1O2,072732-50-4,CNCCOc1cc(C)c(O)cc1C(C)C,"hansch,c et al. (1995) ",2.35,13,21,1,2,0,0,0,0,0,0,,16,
"6-[(2,5-dimethoxyphenyl)methyl]-5-methylpyrido[3,2-e]pyrimidine-2,4-diamine",C17H19N5O2,072732-56-0,COc1ccc(OC)c(Cc2cnc3nc(N)nc(N)c3c2C)c1,"hansch,c et al. (1995) ",2.13,17,19,5,2,0,0,0,0,0,0,,24,
"6-(2-methoxyphenyl)-1,3,5-triazine-2,4-diamine",C10H11N5O1,072775-80-5,COc1ccccc1c2nc(N)nc(N)n2,"hansch,c et al. (1995) ",0.58,10,11,5,1,0,0,0,0,0,0,,16,
"1-[(7-methyl-2,3-dihydro-1h-inden-4-yl)oxy]-3-(propan-2-ylamino)butan-2-ol",C17H27N1O2,072795-19-8,CC(C)NC(C)C(O)COc1ccc(C)c2CCCc12,biobyte starlist (2009) ,3.19,17,27,1,2,0,0,0,0,0,0,,20,
"5-(1,3-benzodioxol-5-ylmethyl)-2-[2-[(5-methyl-1h-imidazol-4-yl)methylsulfanyl]ethylamino]-3h-pyrimidin-4-one",C19H21N5O3S1,not,Cc1[nH]cnc1CSCCNC2=NC=C(Cc3ccc4OCOc4c3)C(=O)N2,biobyte (1995) ,2.11,19,21,5,3,1,0,0,0,0,0,,28,
"p-meo-cinnamic acid,diet-amino-et ester",C16H23N1O3,072836-46-5,COc1ccc(C=CC(=O)OCCN(CC)CC)cc1,"hansch,c et al. (1995) ",3.55,16,23,1,3,0,0,0,0,0,0,,20,
"3,4,5-trimeo-cinnamic acid,dietamet ester",C18H27N1O5,072836-47-6,COc1cc(C=CC(=O)OCCN(CC)CC)cc(OC)c1OC,"hansch,c et al. (1995) ",2.84,18,27,1,5,0,0,0,0,0,0,,24,
"p-f cinnamic acid,diethylaminoethylester",C15H20F1N1O2,072836-48-7,CCN(CCOC(=O)C=Cc1ccc(F)cc1)CC,"hansch,c et al. (1995) ",3.52,15,20,1,2,0,0,1,0,0,0,,19,
1-(9h-carbazol-4-yloxy)-3-[2-(2-methoxyphenoxy)ethylamino]propan-2-ol,C24H26N2O4,072956-09-3,COc1ccccc1OCCNCC(O)COc2cccc3[nH]c4ccccc4c23,"avdeef,a (1997) ",4.19,24,26,2,4,0,0,0,0,0,0,,30,
"(2,5-dioxo-3-prop-2-ynylimidazolidin-1-yl)methyl 2,2-dimethyl-3-(2-methylprop-1-enyl)cyclopropane-1-carboxylate",C17H22N2O4,072963-72-5,CC(C)=CC1C(C(=O)OCN2C(=O)CN(CC#C)C2=O)C1(C)C,"tomlin,c (1997) ",2.9,17,22,2,4,0,0,0,0,0,0,,23,
1-furyl-2-no2-2-coo-me ethylene,C8H7N1O5,072999-11-2,COC(=O)C(=Cc1ccco1)N(=O)(=O),"balaz,s et al. (1987) ",1.88,8,7,1,5,0,0,0,0,0,0,,14,
1-quinolin-6-ylethanone,C11H9N1O1,073013-68-0,CC(=O)c1ccc2ncccc2c1,"hansch,c et al. (1995) ",1.58,11,9,1,1,0,0,0,0,0,0,,13,
"spiro[2-benzofuran-3,1'-cyclopentane]-1-one",C12H12O2,073090-06-9,O=C1OC2(CCCC2)c3ccccc13,"hansch,c et al. (1995) ",2.56,12,12,0,2,0,0,0,0,0,0,,14,
"5-[(3,5-diethoxy-4-pyrrol-1-ylphenyl)methyl]pyrimidine-2,4-diamine",C19H23N5O2,073090-70-7,CCOc1cc(Cc2cnc(N)nc2N)cc(OCC)c1n3cccc3,"hansch,c & leo,aj (1985) ",2.89,19,23,5,2,0,0,0,0,0,0,,26,
"9-oxabenzobicyclo(221)heptene,2ennh2",C10H11N1O1,073208-84-1,c1cc2C3OC(c2cc1)C(N)C3,"hansch,c & leo,aj (1985) ",0.4,10,11,1,1,0,0,0,0,0,0,,12,
"2-(1,3-benzothiazol-2-yloxy)-n-methyl-n-phenylacetamide",C16H14N2O2S1,073250-68-7,CN(C(=O)COc1sc2ccccc2n1)c3ccccc3,"tomlin,c (1997) ",3.23,16,14,2,2,1,0,0,0,0,0,,21,
4-butoxybenzamide,C11H15N1O2,073258-87-4,CCCCOc1ccc(cc1)C(N)=O,"hansch,c et al. (1995) ",2.48,11,15,1,2,0,0,0,0,0,0,,14,
"n,n'-bis(2,3-dihydroxypropyl)-2,4,6-triiodo-5-[(2-methoxyacetyl)amino]-n'-methylbenzene-1,3-dicarboxamide",C18H24I3N3O8,073334-07-3,COCC(=O)Nc1c(I)c(C(=O)NCC(O)CO)c(I)c(c1I)C(=O)N(C)CC(O)CO,"hansch,c et al. (1995) ",-2.05,18,24,3,8,0,0,0,0,0,3,,32,
"2-(2-methoxy-4-methylsulfinylphenyl)-1h-imidazo[4,5-b]pyridine",C14H13N3O2S1,073384-60-8,COc1cc(ccc1c2[nH]c3cccnc3n2)[S](C)=O,sangster (1993) ,1.18,14,13,3,2,1,0,0,0,0,0,,20,
"5-methylpyrano[6,5-e][1]benzoxol-2-one",C12H8O3,073459-03-7,Cc1cc2occc2c3OC(=O)C=Cc13,sangster (1993) ,2.41,12,8,0,3,0,0,0,0,0,0,,15,
4-(hydrazinecarbonylamino)benzoic acid,C8H9N3O3,073469-95-1,NNC(=O)Nc1ccc(cc1)C(O)=O,"kramer,cr & beck,l (1981) ",-0.21,8,9,3,3,0,0,0,0,0,0,,14,
4-amino-n-(5-propan-2-ylpyrimidin-2-yl)benzenesulfonamide,C13H16N4O2S1,073498-01-8,CC(C)c1cnc(N[S](=O)(=O)c2ccc(N)cc2)nc1,"hansch,c et al. (1995) ",1.23,13,16,4,2,1,0,0,0,0,0,,20,
n-[2-hydroxy-5-[1-hydroxy-2-[1-(4-methoxyphenyl)propan-2-ylamino]ethyl]phenyl]formamide,C19H24N2O4,073573-87-2,COc1ccc(CC(C)NCC(O)c2ccc(O)c(NC=O)c2)cc1,merck index;ph=7.4 ,0.4,19,24,2,4,0,0,0,0,0,0,,25,
"[8-[2-(4-hydroxy-6-oxooxan-2-yl)ethyl]-7-methyl-1,2,3,7,8,8a-hexahydronaphthalen-1-yl] 2-methylbutanoate",C23H34O5,073573-88-3,CCC(C)C(=O)OC1CCC=C2C=CC(C)C(CCC3CC(O)CC(=O)O3)C12,sangster (1994) ,3.95,23,34,0,5,0,0,0,0,0,0,,28,
omeprazole,C17H19N3O3S1,073590-58-6,COc1ccc2nc([nH]c2c1)[S](=O)Cc3ncc(C)c(OC)c3C,sangster (1994) ,2.23,17,19,3,3,1,0,0,0,0,0,,24,
ethyl 2-(carbamoylcarbamoyl)-2-ethylbutanoate,C10H18N2O4,073632-76-5,CCOC(=O)C(CC)(CC)C(=O)NC(N)=O,sangster (1993) ,1.45,10,18,2,4,0,0,0,0,0,0,,16,
propan-2-yl 2-(carbamoylcarbamoyl)-2-ethylbutanoate,C11H20N2O4,073632-77-6,CCC(CC)(C(=O)NC(N)=O)C(=O)OC(C)C,sangster (1994) ,1.99,11,20,2,4,0,0,0,0,0,0,,17,
phenylmethyl 2-(carbamoylcarbamoyl)-2-ethylbutanoate,C15H20N2O4,073632-78-7,CCC(CC)(C(=O)NC(N)=O)C(=O)OCc1ccccc1,sangster (1993) ,2.74,15,20,2,4,0,0,0,0,0,0,,21,