Names,Formula,CAS No,SMILES,Reference,Exp logp,C,H,N,O,S,P,F,Cl,Br,I,,,
dimethoxy-(4-nitro-3-propan-2-ylphenoxy)-sulfanylidenephosphorane,C11H16N1O5P1S1,001592-82-1,CO[P](=S)(OC)Oc1ccc(c(c1)C(C)C)[N+]([O-])=O,"hansch,c et al. (1995) ",4.05,11,16,1,5,1,1,0,0,0,0,,19,
"4-(2,2-dimethylhydrazinyl)-4-oxobutanoic acid",C6H12N2O3,001596-84-5,CN(C)NC(=O)CCC(O)=O,"tomlin,c (1997) ",-1.5,6,12,2,3,0,0,0,0,0,0,,11,
5-methylpyridin-2-amine,C6H8N2,001603-41-4,Cc1ccc(N)nc1,"hansch,c et al. (1995) ",1.02,6,8,2,0,0,0,0,0,0,0,,8,
pyren-1-amine,C16H11N1,001606-67-3,Nc1ccc2ccc3cccc4ccc1c2c34,"debnath,ak et al. (1992) ",4.31,16,11,1,0,0,0,0,0,0,0,,17,
(2-propan-2-ylphenyl) acetate,C11H14O2,001608-68-0,CC(C)c1ccccc1OC(C)=O,"hansch,c et al. (1995) ",2.78,11,14,0,2,0,0,0,0,0,0,,13,
"n'-ethyl-6-methoxy-n-propan-2-yl-1,3,5-triazine-2,4-diamine",C9H17N5O1,001610-17-9,CCNc1nc(NC(C)C)nc(OC)n1,"finizio,a et al. (1991) ",2.69,9,17,5,1,0,0,0,0,0,0,,15,
"6-methoxy-n,n'-di(propan-2-yl)-1,3,5-triazine-2,4-diamine",C10H19N5O1,001610-18-0,COc1nc(NC(C)C)nc(NC(C)C)n1,"finizio,a et al. (1991) ",2.99,10,19,5,1,0,0,0,0,0,0,,16,
"3-buten-2-one,4-(4-fluorophenyl)-",C10H9F1O1,001611-38-7,CC(=O)C=Cc1ccc(F)cc1,"yamagami,c et al. (1998) ",2.22,10,9,0,1,0,0,1,0,0,0,,12,
ethyl 3-(benzotriazol-2-yl)butanoate,C12H15N3O2,001612-15-3,CCOC(=O)CC(C)n1nc2ccccc2n1,"sparatore,f et al. (1988) ",2.7,12,15,3,2,0,0,0,0,0,0,,17,
"1,3-dihydrobenzo[c][1,2,5]thiadiazole 2,2-dioxide",C6H6N2O2S1,001615-06-1,O=[S]1(=O)Nc2ccccc2N1,"hansch,c et al. (1995) ",1.12,6,6,2,2,1,0,0,0,0,0,,11,
"5-(2-phenylethyl)-1,3,4-oxadiazol-2-amine",C10H11N3O1,001617-93-2,Nc1oc(CCc2ccccc2)nn1,sangster (1993) ,1.19,10,11,3,1,0,0,0,0,0,0,,14,
6-methylpyridine-2-carbonitrile,C7H6N2,001620-75-3,Cc1cccc(n1)C#N,"hansch,c et al. (1995) ",0.84,7,6,2,0,0,0,0,0,0,0,,9,
1-methylbenzimidazol-2-amine,C8H9N3,001622-57-7,Cn1c(N)nc2ccccc12,"hansch,c et al. (1995) ",0.95,8,9,3,0,0,0,0,0,0,0,,11,
clonazepam,C15H10Cl1N3O3,001622-61-3,[O-][N+](=O)c1ccc2NC(=O)CN=C(c3ccccc3Cl)c2c1,"hansch,c et al. (1995) ",2.41,15,10,3,3,0,0,0,1,0,0,,22,
"5-(2-fluorophenyl)-1-methyl-7-nitro-3h-1,4-benzodiazepin-2-one",C16H12F1N3O3,001622-62-4,CN1C(=O)CN=C(c2ccccc2F)c3cc(ccc13)[N+]([O-])=O,"hansch,c et al. (1995) ",2.06,16,12,3,3,0,0,1,0,0,0,,23,
triprop-2-enyl phosphate,C9H15O4P1,001623-19-4,C=CCO[P](=O)(OCC=C)OCC=C,chemicals inspection and testing institu (1992) ,1.76,9,15,0,4,0,1,0,0,0,0,,14,
2-methoxypyridine,C6H7N1O1,001628-89-3,COc1ccccn1,"yamagami,c et al. (1990a) ",1.34,6,7,1,1,0,0,0,0,0,0,,8,
3-methylpyridazine,C5H6N2,001632-76-4,Cc1cccnn1,"yamagami,c et al. (1990) ",-0.35,5,6,2,0,0,0,0,0,0,0,,7,
"pyridine-3,4-dicarbonitrile",C7H3N3,001633-44-9,N#Cc1ccncc1C#N,"hansch,c et al. (1995) ",0.24,7,3,3,0,0,0,0,0,0,0,,10,
2-methoxy-2-methylpropane,C5H12O1,001634-04-4,COC(C)(C)C,"hansch,c et al. (1995) ",0.94,5,12,0,1,0,0,0,0,0,0,,6,
2-isothiocyanatonaphthalene,C11H7N1S1,001636-33-5,S=C=Nc1ccc2ccccc2c1,"hansch,c et al. (1995) ",4.34,11,7,1,0,1,0,0,0,0,0,,13,
4-butylphenol,C10H14O1,001638-22-8,CCCCc1ccc(O)cc1,sangster (1993) ,3.65,10,14,0,1,0,0,0,0,0,0,,11,
"benzoic acid, 4-(chloromethyl)-",C8H7Cl1O2,001642-81-5,OC(=O)c1ccc(CCl)cc1,biobyte (1995) ,2.12,8,7,0,2,0,0,0,1,0,0,,11,
2-(3-methylphenoxy)acetic acid,C9H10O3,001643-15-8,Cc1cccc(OCC(O)=O)c1,"hansch,c et al. (1995) ",1.78,9,10,0,3,0,0,0,0,0,0,,12,
2-(4-propan-2-ylphenoxy)acetic acid,C11H14O3,001643-16-9,CC(C)c1ccc(OCC(O)=O)cc1,"hansch,c et al. (1995) ",2.69,11,14,0,3,0,0,0,0,0,0,,14,
methyl 1-benzofuran-2-carboxylate,C10H8O3,001646-27-1,COC(=O)c1oc2ccccc2c1,"yamagami,c et al. (1992) ",2.53,10,8,0,3,0,0,0,0,0,0,,13,
aldicarb sulfone,C7H14N2O4S1,001646-88-4,CNC(=O)O\N=C\C(C)(C)[S](C)(=O)=O,"hansch,c & leo,aj (1985) ",-0.57,7,14,2,4,1,0,0,0,0,0,,14,
1-(4-fluorophenyl)-4-(4-pyridin-2-ylpiperazin-1-yl)butan-1-one,C19H22F1N3O1,001649-18-9,Fc1ccc(cc1)C(=O)CCCN2CCN(CC2)c3ccccn3,"hansch,c et al. (1995) ",3.3,19,22,3,1,0,0,1,0,0,0,,24,
doxepin,C19H21N1O1,001668-19-5,[H+].[Cl-].CN(C)CC\C=C/1c2ccccc2COc3ccccc13,sangster (1994) ,4.29,19,21,1,1,0,0,0,0,0,0,,21,
1h-indole-2-carboxamide,C9H8N2O1,001670-84-4,NC(=O)c1[nH]c2ccccc2c1,sangster (1994) ,1.61,9,8,2,1,0,0,0,0,0,0,,12,
1h-indole-4-carboxamide,C9H8N2O1,001670-86-6,NC(=O)c1cccc2[nH]ccc12,"hansch,c et al. (1995) ",0.66,9,8,2,1,0,0,0,0,0,0,,12,
1h-indole-5-carboxamide,C9H8N2O1,001670-87-7,NC(=O)c1ccc2[nH]ccc2c1,"hansch,c et al. (1995) ",0.87,9,8,2,1,0,0,0,0,0,0,,12,
"4-(3,12,14-trihydroxy-10,13-dimethyl-1,2,3,4,5,6,7,8,9,11,12,15,16,17-tetradecahydrocyclopenta[a]phenanthren-17-yl)-5h-furan-2-one",C23H34O5,001672-46-4,CC12CCC(O)CC1CCC3C2CC(O)C4(C)C(CCC34O)C5=CC(=O)OC5,"hansch,c et al. (1995) ",1.1,23,34,0,5,0,0,0,0,0,0,,28,
"benzoylhydrazine, m-chloro",C7H7Cl1N2O1,001673-47-8,NNC(=O)c1cccc(Cl)c1,"hansch,c et al. (1995) ",1.18,7,7,2,1,0,0,0,1,0,0,,11,
"1,2-benzodithiol-3-one",C7H4O1S2,001677-27-6,O=C1SSc2ccccc12,"bona,m et al. (1995) ",2.73,7,4,0,1,2,0,0,0,0,0,,10,
n-phenylbenzenesulfonamide,C12H11N1O2S1,001678-25-7,O=[S](=O)(Nc1ccccc1)c2ccccc2,"hansch,c et al. (1995) ",2.58,12,11,1,2,1,0,0,0,0,0,,16,
ethylcyclohexane,C8H16,001678-91-7,CCC1CCCCC1,"ritter,s et al. (1995) ",4.56,8,16,0,0,0,0,0,0,0,0,,8,
2-[2-(2-prop-2-enoyloxyethoxy)ethoxy]ethyl prop-2-enoate,C12H18O6,001680-21-3,C=CC(=O)OCCOCCOCCOC(=O)C=C,sangster (1993) ,0.96,12,18,0,6,0,0,0,0,0,0,,18,
4-phenyl-2h-triazole,C8H7N3,001680-44-0,[nH]1ncc(n1)c2ccccc2,sangster (1993) ,1.91,8,7,3,0,0,0,0,0,0,0,,11,
"3,3-dimethyl-2-benzofuran-1-one",C10H10O2,001689-09-4,CC1(C)OC(=O)c2ccccc12,"hansch,c et al. (1995) ",1.73,10,10,0,2,0,0,0,0,0,0,,12,
"4-hydroxy-3,5-diiodobenzonitrile",C7H3I2N1O1,001689-83-4,Oc1c(I)cc(cc1I)C#N,"comer,j et al. (1995) ",3.43,7,3,1,1,0,0,0,0,0,2,,11,
"(2,6-dibromo-4-cyanophenyl) octanoate",C15H17Br2N1O2,001689-99-2,CCCCCCCC(=O)Oc1c(Br)cc(cc1Br)C#N,"tomlin,c (2003) ",5.4,15,17,1,2,0,0,0,0,2,0,,20,
1-methoxy-2-(phenoxy)benzene,C13H12O2,001695-04-1,COc1ccccc1Oc2ccccc2,"hansch,c et al. (1995) ",2.92,13,12,0,2,0,0,0,0,0,0,,15,
"n,n-diethylbenzamide",C11H15N1O1,001696-17-9,CCN(CC)C(=O)c1ccccc1,"hansch,c et al. (1995) ",1.25,11,15,1,1,0,0,0,0,0,0,,13,
"2-phenyl-4,5-dichloro-3-pyridazinone",C10H6Cl2N2O1,001698-53-9,ClC1=C(Cl)C(=O)N(N=C1)c2ccccc2,iuclid (2000) einecs no. 216-917-6 ,2.09,10,6,2,1,0,0,0,2,0,0,,15,
1-pyridin-4-ylpropan-1-one,C8H9N1O1,001701-69-5,CCC(=O)c1ccncc1,"hansch,c et al. (1995) ",0.77,8,9,1,1,0,0,0,0,0,0,,10,
"3,6-dichloropicolinic acid",C6H3Cl2N1O2,001702-17-6,OC(=O)c1nc(Cl)ccc1Cl,"comer,j et al. (1995) ",1.06,6,3,1,2,0,0,0,2,0,0,,11,
"2,5-dihydrofuran",C4H6O1,001708-29-8,C1OCC=C1,"hansch,c et al. (1995) ",0.46,4,6,0,1,0,0,0,0,0,0,,5,
4-amino-n-methylbenzenesulfonamide,C7H10N2O2S1,001709-52-0,CN[S](=O)(=O)c1ccc(N)cc1,"hansch,c et al. (1995) ",-0.01,7,10,2,2,1,0,0,0,0,0,,12,
"4-amino-n,n-dimethylbenzenesulfonamide",C8H12N2O2S1,001709-59-7,CN(C)[S](=O)(=O)c1ccc(N)cc1,"hansch,c et al. (1995) ",0.67,8,12,2,2,1,0,0,0,0,0,,13,
bromociclen [inn],C8H5Br1Cl6,001715-40-8,ClC1=C(Cl)C2(Cl)C(CBr)CC1(Cl)C2(Cl)Cl,"geyer,hj et al. (2000) ",5.9,8,5,0,0,0,0,0,6,1,0,,15,
3-chloro-6-methoxypyridazine,C5H5Cl1N2O1,001722-10-7,COc1ccc(Cl)nn1,"hansch,c et al. (1995) ",0.89,5,5,2,1,0,0,0,1,0,0,,9,
"pyrimidine, 2-chloro-",C4H3Cl1N2,001722-12-9,Clc1ncccn1,"yamagami,c et al. (1990) ",0.36,4,3,2,0,0,0,0,1,0,0,,7,
"2-phenyl-1,3,5-triazine",C9H7N3,001722-18-5,c1ccc(cc1)c2ncncn2,"hansch,c et al. (1995) ",1.93,9,7,3,0,0,0,0,0,0,0,,12,
[isothiocyanato-di(phenyl)methyl]benzene,C20H15N1S1,001726-94-9,S=C=NC(c1ccccc1)(c2ccccc2)c3ccccc3,"hansch,c et al. (1995) ",7.02,20,15,1,0,1,0,0,0,0,0,,22,
1-methyl-9h-fluorene,C14H12,001730-37-6,Cc1cccc2c1Cc3ccccc23,"miller,mm et al. (1985) ",4.97,14,12,0,0,0,0,0,0,0,0,,14,
methyl nonanoate,C10H20O2,001731-84-6,CCCCCCCCC(=O)OC,"tewari,yb et al. (1982) ",4.32,10,20,0,2,0,0,0,0,0,0,,12,
dimethyl heptanedioate,C9H16O4,001732-08-7,COC(=O)CCCCCC(=O)OC,"hansch,c et al. (1995) ",1.38,9,16,0,4,0,0,0,0,0,0,,13,
n-[4-(trifluoromethoxy)phenyl]acetamide,C9H8F3N1O2,001737-06-0,CC(=O)Nc1ccc(OC(F)(F)F)cc1,"nakagawa,y et al. (1992) ",2.62,9,8,1,2,0,0,3,0,0,0,,15,
"1,4a-dimethyl-7-propan-2-yl-2,3,4,9,10,10a-hexahydrophenanthrene-1-carboxylic acid",C20H28O2,001740-19-8,CC(C)c1ccc2c(CCC3C(C)(CCCC23C)C(O)=O)c1,"kukkonen,j & oikari,a (1991) ",4.8,20,28,0,2,0,0,0,0,0,0,,22,
"benzene-1,3-dicarboxamide",C8H8N2O2,001740-57-4,NC(=O)c1cccc(c1)C(N)=O,"hansch,c et al. (1995) ",-0.21,8,8,2,2,0,0,0,0,0,0,,12,
prop-2-enoxybenzene,C9H10O1,001746-13-0,C=CCOc1ccccc1,"hansch,c et al. (1995) ",2.94,9,10,0,1,0,0,0,0,0,0,,10,
"2,4,5-triiodo-1h-imidazole",C3H1I3N2,001746-25-4,Ic1[nH]c(I)c(I)n1,"hansch,c et al. (1995) ",2.78,3,1,2,0,0,0,0,0,0,3,,8,
monolinuron,C9H11Cl1N2O2,001746-81-2,CON(C)C(=O)Nc1ccc(Cl)cc1,"hansch,c et al. (1995) ",2.3,9,11,2,2,0,0,0,1,0,0,,14,
n-phenylpyridine-3-carboxamide,C12H10N2O1,001752-96-1,O=C(Nc1ccccc1)c2cccnc2,"hansch,c et al. (1995) ",1.73,12,10,2,1,0,0,0,0,0,0,,15,
"2-ethyl-1,4-dimethylbenzene",C10H14,001758-88-9,CCc1cc(C)ccc1C,"sherblom,pm & eganhouse,rp (1988) ",4.43,10,14,0,0,0,0,0,0,0,0,,10,
rh-1911 o-ph(4-cl) n-butylene carbamate,C11H12Cl1N1O2,001759-02-0,Clc1ccc(OC(=O)N2CCCC2)cc1,"nandihalli,ub et al. (1993) ",3.38,11,12,1,2,0,0,0,1,0,0,,15,
cyclopropanecarboxylic acid,C4H6O2,001759-53-1,OC(=O)C1CC1,"hansch,c et al. (1995) ",0.63,4,6,0,2,0,0,0,0,0,0,,6,
2-methyl-4-oxo-4-phenylbutanoic acid,C11H12O3,001771-65-9,CC(CC(=O)c1ccccc1)C(O)=O,"kuchar,m et al. (1985) ",1.62,11,12,0,3,0,0,0,0,0,0,,14,
3-methylsulfanylaniline,C7H9N1S1,001783-81-9,CSc1cccc(N)c1,"hansch,c et al. (1995) ",1.45,7,9,1,0,1,0,0,0,0,0,,9,
2-(2-ethylphenoxy)acetic acid,C10H12O3,001798-03-4,CCc1ccccc1OCC(O)=O,"hansch,c et al. (1995) ",2.53,10,12,0,3,0,0,0,0,0,0,,13,
2-(4-iodophenyl)acetic acid,C8H7I1O2,001798-06-7,OC(=O)Cc1ccc(I)cc1,"hansch,c et al. (1995) ",2.64,8,7,0,2,0,0,0,0,0,1,,11,
2-(3-methoxyphenyl)acetic acid,C9H10O3,001798-09-0,COc1cccc(CC(O)=O)c1,"hansch,c et al. (1995) ",1.5,9,10,0,3,0,0,0,0,0,0,,12,
2-(4-nitrophenoxy)acetic acid,C8H7N1O5,001798-11-4,OC(=O)COc1ccc(cc1)[N+]([O-])=O,"hansch,c et al. (1995) ",1.48,8,7,1,5,0,0,0,0,0,0,,14,
2-(3-bromophenoxy)acetic acid,C8H7Br1O3,001798-99-8,OC(=O)COc1cccc(Br)c1,"hansch,c et al. (1995) ",2.22,8,7,0,3,0,0,0,0,1,0,,12,
"1,3-di(prop-2-enyl)urea",C7H12N2O1,001801-72-5,C=CCNC(=O)NCC=C,"hansch,c et al. (1995) ",0.64,7,12,2,1,0,0,0,0,0,0,,10,
5-methoxy-1-methylbenzimidazol-2-amine,C9H11N3O1,001805-02-3,COc1ccc2n(C)c(N)nc2c1,"hansch,c et al. (1995) ",0.87,9,11,3,1,0,0,0,0,0,0,,13,
"3,4-dichlorobenzyl alcohol",C7H6Cl2O1,001805-32-9,OCc1ccc(Cl)c(Cl)c1,chemicals inspection and testing institu (1992) ,2.74,7,6,0,1,0,0,0,2,0,0,,10,
hydroxy-di(propan-2-yloxy)phosphanium,C6H15O3P1,001809-20-7,CC(C)O[PH+](O)OC(C)C,pomona (1987) ,0.45,6,15,0,3,0,1,0,0,0,0,,10,
"7-bromo-5-pyridin-2-yl-1,3-dihydro-1,4-benzodiazepin-2-one",C14H10Br1N3O1,001812-30-2,Brc1ccc2NC(=O)CN=C(c3ccccn3)c2c1,sangster (1994) ,2.05,14,10,3,1,0,0,0,0,1,0,,19,
1-nitro-4-propan-2-ylbenzene,C9H11N1O2,001817-47-6,CC(C)c1ccc(cc1)[N+]([O-])=O,"hansch,c et al. (1995) ",3.45,9,11,1,2,0,0,0,0,0,0,,12,
4-phenylbutanoic acid,C10H12O2,001821-12-1,OC(=O)CCCc1ccccc1,"hansch,c et al. (1995) ",2.42,10,12,0,2,0,0,0,0,0,0,,12,
n-(phenylcarbamoyl)benzamide,C14H12N2O2,001821-33-6,O=C(NC(=O)c1ccccc1)Nc2ccccc2,"sotomatsu,t et al. (1987) ",3.39,14,12,2,2,0,0,0,0,0,0,,18,
3-benzylhydrochlorothiazide,C14H14Cl1N3O4S2,001824-50-6,S1(=O)(=O)NC(Cc3ccccc3)Nc2cc(Cl)c(S(N)(=O)=O)cc12,"hansch,c et al. (1995) ",0.93,14,14,3,4,2,0,0,1,0,0,,24,
3-ethylhydrochlorothiazide,C9H12Cl1N3O4S2,001824-58-4,CCC1Nc2cc(Cl)c(cc2[S](=O)(=O)N1)[S](N)(=O)=O,"hansch,c et al. (1995) ",0.3,9,12,3,4,2,0,0,1,0,0,,19,
pentachloroanisole,C7H3Cl5O1,001825-21-4,COc1c(Cl)c(Cl)c(Cl)c(Cl)c1Cl,"opperhuizen,a & voors,pi (1987) ",5.45,7,3,0,1,0,0,0,5,0,0,,13,
"1,8-dichloronaphthalene",C10H6Cl2,002050-74-0,Clc1cccc2cccc(Cl)c12,sangster (1994) ,4.3,10,6,0,0,0,0,0,2,0,0,,12,
"1,4-dichloronaphthalene",C10H6Cl2,001825-31-6,Clc1ccc(Cl)c2ccccc12,"lei,yd et al. (2000) ",4.8,10,6,0,0,0,0,0,2,0,0,,12,
"2-phenyl-1,3-thiazole",C9H7N1S1,001826-11-5,s1ccnc1c2ccccc2,sangster (1993) ,2.77,9,7,1,0,1,0,0,0,0,0,,11,
3-hydroxy-3-methyl-2-benzofuran-1-one,C9H8O3,001828-76-8,CC1(O)OC(=O)c2ccccc12,pomona (1987) ,0.81,9,8,0,3,0,0,0,0,0,0,,12,
(2-bromophenyl) acetate,C8H7Br1O2,001829-37-4,CC(=O)Oc1ccccc1Br,"hansch,c et al. (1995) ",2.2,8,7,0,2,0,0,0,0,1,0,,11,
1-(methyl-octoxyphosphoryl)oxyoctane,C17H37O3P1,001832-68-4,CCCCCCCCO[P](C)(=O)OCCCCCCCC,"krikorian,se et al. (1987) ",6.13,17,37,0,3,0,1,0,0,0,0,,21,
nitrofen,C12H7Cl2N1O3,001836-75-5,[O-][N+](=O)c1ccc(Oc2ccc(Cl)cc2Cl)cc1,sangster (1994) ,4.64,12,7,1,3,0,0,0,2,0,0,,18,
chlornitrofen,C12H6Cl3N1O3,001836-77-7,[O-][N+](=O)c1ccc(Oc2c(Cl)cc(Cl)cc2Cl)cc1,"kawamoto,k & urano,k (1989) ",4.97,12,6,1,3,0,0,0,3,0,0,,19,
"8-[4,4-bis(4-fluorophenyl)butyl]-1-phenyl-1,3,8-triazaspiro[4.5]decan-4-one",C29H31F2N3O1,001841-19-6,Fc1ccc(cc1)C(CCCN2CCC3(CC2)N(CNC3=O)c4ccccc4)c5ccc(F)cc5,"hansch,c et al. (1995) ",5.86,29,31,3,1,0,0,2,0,0,0,,35,
"10,13-dimethyl-2,3,4,5,6,7,8,9,11,12,14,15,16,17-tetradecahydro-1h-cyclopenta[a]phenanthrene-3,17-diol",C19H32O2,not,CC12CCC3C(CCC4CC(O)CCC34C)C1CCC2O,"hansch,c et al. (1995) ",4.16,19,32,0,2,0,0,0,0,0,0,,21,
dimethyl tetrachloroterephthalate,C10H6Cl4O4,001861-32-1,COC(=O)c1c(Cl)c(Cl)c(c(Cl)c1Cl)C(=O)OC,"tomlin,c (1997) ",4.28,10,6,0,4,0,0,0,4,0,0,,18,
"n-butyl-n-ethyl-2,6-dinitro-4-(trifluoromethyl)aniline",C13H16F3N3O4,001861-40-1,CCCCN(CC)c1c(cc(cc1[N+]([O-])=O)C(F)(F)F)[N+]([O-])=O,"tomlin,c (1997) ",5.29,13,16,3,4,0,0,3,0,0,0,,23,
phenyl formate,C7H6O2,001864-94-4,O=COc1ccccc1,"hansch,c et al. (1995) ",1.26,7,6,0,2,0,0,0,0,0,0,,9,
decanedinitrile,C10H16N2,001871-96-1,N#CCCCCCCCCC#N,"tanii,h & hashimoto,k (1985) ",1.75,10,16,2,0,0,0,0,0,0,0,,12,
6-butan-2-yl-1-hydroxy-3-(2-methylpropyl)pyrazin-2-one,C12H20N2O2,001873-43-4,CCC(C)C1=CN=C(CC(C)C)C(=O)N1O,biobyte starlist (2009) ,1.81,12,20,2,2,0,0,0,0,0,0,,16,
1-(5-no2-2-furyl)-2-(coo-et)ethylene,C9H9N1O5,001874-12-0,CCOC(=O)C=Cc1ccc(N(=O)(=O))o1,"balaz,s et al. (1987) ",2.1,9,9,1,5,0,0,0,0,0,0,,15,
1-(5-no2-2-furyl)-2-(coo-me)ethylene,C8H7N1O5,001874-24-4,COC(=O)C=Cc1ccc(N(=O)(=O))o1,"balaz,s et al. (1987) ",1.65,8,7,1,5,0,0,0,0,0,0,,14,
3-methoxycarbonylbenzoic acid,C9H8O4,001877-71-0,COC(=O)c1cccc(c1)C(O)=O,"hansch,c et al. (1995) ",1.83,9,8,0,4,0,0,0,0,0,0,,13,
3-cyanobenzoic acid,C8H5N1O2,001877-72-1,OC(=O)c1cccc(c1)C#N,"hansch,c et al. (1995) ",1.48,8,5,1,2,0,0,0,0,0,0,,11,
2-(3-nitrophenyl)acetic acid,C8H7N1O4,001877-73-2,OC(=O)Cc1cccc(c1)[N+]([O-])=O,"hansch,c et al. (1995) ",1.45,8,7,1,4,0,0,0,0,0,0,,13,
2-(4-methoxyphenoxy)acetic acid,C9H10O4,001877-75-4,COc1ccc(OCC(O)=O)cc1,"hansch,c et al. (1995) ",1.23,9,10,0,4,0,0,0,0,0,0,,13,
(3-aminophenyl)methanol,C7H9N1O1,001877-77-6,Nc1cccc(CO)c1,"hansch,c et al. (1995) ",-0.05,7,9,1,1,0,0,0,0,0,0,,9,
2-(2-methylphenoxy)acetic acid,C9H10O3,001878-49-5,Cc1ccccc1OCC(O)=O,"hansch,c et al. (1995) ",1.98,9,10,0,3,0,0,0,0,0,0,,12,
2-(3-ethylphenoxy)acetic acid,C10H12O3,001878-51-9,CCc1cccc(OCC(O)=O)c1,"hansch,c et al. (1995) ",2.25,10,12,0,3,0,0,0,0,0,0,,13,
2-(3-propan-2-ylphenoxy)acetic acid,C11H14O3,001878-52-0,CC(C)c1cccc(OCC(O)=O)c1,"hansch,c et al. (1995) ",2.59,11,14,0,3,0,0,0,0,0,0,,14,
2-(3-butylphenoxy)acetic acid,C12H16O3,001878-53-1,CCCCc1cccc(OCC(O)=O)c1,"hansch,c et al. (1995) ",3.18,12,16,0,3,0,0,0,0,0,0,,15,
2-(3-tert-butylphenoxy)acetic acid,C12H16O3,001878-55-3,CC(C)(C)c1cccc(OCC(O)=O)c1,"hansch,c et al. (1995) ",2.96,12,16,0,3,0,0,0,0,0,0,,15,
2-(4-cyclohexylphenoxy)acetic acid,C14H18O3,001878-56-4,OC(=O)COc1ccc(cc1)C2CCCCC2,"hansch,c et al. (1995) ",3.79,14,18,0,3,0,0,0,0,0,0,,17,
2-(3-phenylphenoxy)acetic acid,C14H12O3,001878-57-5,OC(=O)COc1cccc(c1)c2ccccc2,"hansch,c et al. (1995) ",3.18,14,12,0,3,0,0,0,0,0,0,,17,
"2-(2,3-dihydro-1h-inden-5-yloxy)acetic acid",C11H12O3,001878-58-6,OC(=O)COc1ccc2CCCc2c1,"hansch,c et al. (1995) ",2.33,11,12,0,3,0,0,0,0,0,0,,14,
"2-(5,6,7,8-tetrahydronaphthalen-2-yloxy)acetic acid",C12H14O3,001878-59-7,OC(=O)COc1ccc2CCCCc2c1,"hansch,c et al. (1995) ",2.67,12,14,0,3,0,0,0,0,0,0,,15,
"phenoxyacetic acid, m-carboxy",C9H8O5,001878-61-1,c1cc(OCC(=O)(O))cc(C(=O)(O))c1,"hansch,c et al. (1995) ",1.11,9,8,0,5,0,0,0,0,0,0,,14,
st5116870,C10H10O4,001878-62-2,CC(=O)c1ccccc1OCC(O)=O,"hansch,c et al. (1995) ",1.25,10,10,0,4,0,0,0,0,0,0,,14,
m-chlorophenylacetic acid,C8H7Cl1O2,001878-65-5,OC(=O)Cc1cccc(Cl)c1,"hansch,c et al. (1995) ",2.09,8,7,0,2,0,0,0,1,0,0,,11,
p-chlorophenylacetic acid,C8H7Cl1O2,001878-66-6,OC(=O)Cc1ccc(Cl)cc1,"hansch,c et al. (1995) ",2.12,8,7,0,2,0,0,0,1,0,0,,11,
2-(3-bromophenyl)acetic acid,C8H7Br1O2,001878-67-7,OC(=O)Cc1cccc(Br)c1,"hansch,c et al. (1995) ",2.37,8,7,0,2,0,0,0,0,1,0,,11,
2-(4-bromophenyl)acetic acid,C8H7Br1O2,001878-68-8,OC(=O)Cc1ccc(Br)cc1,"hansch,c et al. (1995) ",2.31,8,7,0,2,0,0,0,0,1,0,,11,
2-(3-iodophenyl)acetic acid,C8H7I1O2,001878-69-9,OC(=O)Cc1cccc(I)c1,"hansch,c et al. (1995) ",2.62,8,7,0,2,0,0,0,0,0,1,,11,
2-(3-cyanophenyl)acetic acid,C9H7N1O2,001878-71-3,OC(=O)Cc1cccc(c1)C#N,"hansch,c et al. (1995) ",1.18,9,7,1,2,0,0,0,0,0,0,,12,
2-(3-acetylphenoxy)acetic acid,C10H10O4,001878-80-4,CC(=O)c1cccc(OCC(O)=O)c1,"hansch,c et al. (1995) ",0.98,10,10,0,4,0,0,0,0,0,0,,14,
2-(4-acetylphenoxy)acetic acid,C10H10O4,001878-81-5,CC(=O)c1ccc(OCC(O)=O)cc1,"hansch,c et al. (1995) ",0.87,10,10,0,4,0,0,0,0,0,0,,14,
2-(4-cyanophenoxy)acetic acid,C9H7N1O3,001878-82-6,OC(=O)COc1ccc(cc1)C#N,"hansch,c et al. (1995) ",0.93,9,7,1,3,0,0,0,0,0,0,,13,
2-(3-hydroxyphenoxy)acetic acid,C8H8O4,001878-83-7,OC(=O)COc1cccc(O)c1,"hansch,c et al. (1995) ",0.76,8,8,0,4,0,0,0,0,0,0,,12,
2-(4-hydroxyphenoxy)acetic acid,C8H8O4,001878-84-8,OC(=O)COc1ccc(O)cc1,"hansch,c et al. (1995) ",0.65,8,8,0,4,0,0,0,0,0,0,,12,
2-(2-methoxyphenoxy)acetic acid,C9H10O4,001878-85-9,COc1ccccc1OCC(O)=O,"hansch,c et al. (1995) ",0.98,9,10,0,4,0,0,0,0,0,0,,13,
2-(2-nitrophenoxy)acetic acid,C8H7N1O5,001878-87-1,OC(=O)COc1ccccc1[N+]([O-])=O,sangster (1994) ,1.13,8,7,1,5,0,0,0,0,0,0,,14,
2-(3-nitrophenoxy)acetic acid,C8H7N1O5,001878-88-2,OC(=O)COc1cccc(c1)[N+]([O-])=O,"hansch,c et al. (1995) ",1.37,8,7,1,5,0,0,0,0,0,0,,14,
2-(4-bromophenoxy)acetic acid,C8H7Br1O3,001878-91-7,OC(=O)COc1ccc(Br)cc1,"hansch,c et al. (1995) ",2.45,8,7,0,3,0,0,0,0,1,0,,12,
2-(3-iodophenoxy)acetic acid,C8H7I1O3,001878-93-9,OC(=O)COc1cccc(I)c1,"hansch,c et al. (1995) ",2.44,8,7,0,3,0,0,0,0,0,1,,12,
2-(4-iodophenoxy)acetic acid,C8H7I1O3,001878-94-0,OC(=O)COc1ccc(I)cc1,"hansch,c et al. (1995) ",2.69,8,7,0,3,0,0,0,0,0,1,,12,
2-(2-bromophenoxy)acetic acid,C8H7Br1O3,001879-56-7,OC(=O)COc1ccccc1Br,"hansch,c et al. (1995) ",2.04,8,7,0,3,0,0,0,0,1,0,,12,
m-cyanophenoxyacetic acid,C9H7N1O3,001879-58-9,OC(=O)COc1cccc(c1)C#N,"hansch,c et al. (1995) ",0.95,9,7,1,3,0,0,0,0,0,0,,13,
"17-acetyl-9-fluoro-11,17-dihydroxy-10,13,16-trimethyl-6,7,8,11,12,14,15,16-octahydrocyclopenta[a]phenanthren-3-one",C22H29F1O4,001879-77-2,CC1CC2C3CCC4=CC(=O)C=CC4(C)C3(F)C(O)CC2(C)C1(O)C(C)=O,biobyte (1995) ,2.35,22,29,0,4,0,0,1,0,0,0,,27,
[6-(methylcarbamoyloxymethyl)pyridin-2-yl]methyl n-methylcarbamate,C11H15N3O4,001882-26-4,CNC(=O)OCc1cccc(COC(=O)NC)n1,"hansch,c et al. (1995) ",0.24,11,15,3,4,0,0,0,0,0,0,,18,
"3,4-pyridinedimethanol, 6-methyl-5-(phosphonooxy",C7H10N1O6P1,001883-15-4,Cc1ncc(OP(=O)(O)O)c(CO)c1O,sangster (1994) ,-0.64,7,10,1,6,0,1,0,0,0,0,,15,
2-aminobenzonitrile,C7H6N2,001885-29-6,Nc1ccccc1C#N,"hansch,c et al. (1995) ",1.4,7,6,2,0,0,0,0,0,0,0,,9,
3-phenyl-2-propenenitrile,C9H7N1,001885-38-7,N#CC=Cc1ccccc1,"hansch,c et al. (1995) ",1.96,9,7,1,0,0,0,0,0,0,0,,10,
n-benzalaminopiperidine,C12H16N2,001885-87-6,C1CCN(CC1)N=Cc2ccccc2,"hansch,c et al. (1995) ",3.04,12,16,2,0,0,0,0,0,0,0,,14,
4-(trifluoromethyl)benzamide,C8H6F3N1O1,001891-90-3,NC(=O)c1ccc(cc1)C(F)(F)F,"hansch,c et al. (1995) ",1.71,8,6,1,1,0,0,3,0,0,0,,13,
1-[4-(4-fluorophenyl)-4-oxobutyl]-4-piperidin-1-ylpiperidine-4-carboxamide,C21H30F1N3O2,001893-33-0,NC(=O)C1(CCN(CCCC(=O)c2ccc(F)cc2)CC1)N3CCCCC3,"hansch,c et al. (1995) ",2.02,21,30,3,2,0,0,1,0,0,0,,27,