Names,Formula,CAS No,SMILES,Reference,Exp logp,C,H,N,O,S,P,F,Cl,Br,I,,,
benzaldoxime,C7H7N1O1,000932-90-1,ON=Cc1ccccc1,"hansch,c et al. (1995) ",1.75,7,7,1,1,0,0,0,0,0,0,,9,
phenylcyanamide,C7H6N2,not,N#CNc1ccccc1,biobyte (1995) ,1.87,7,6,2,0,0,0,0,0,0,0,,9,
ethylsulfanylbenzene,C8H10S1,000622-38-8,CCSc1ccccc1,"hansch,c et al. (1995) ",3.2,8,10,0,0,1,0,0,0,0,0,,9,
nitromethylbenzene,C7H7N1O2,000622-42-4,[O-][N+](=O)Cc1ccccc1,"hansch,c et al. (1995) ",1.75,7,7,1,2,0,0,0,0,0,0,,10,
phenylisocyanide dichloride,C7H5Cl2N1,000622-44-6,ClC(Cl)=Nc1ccccc1,"hansch,c et al. (1995) ",2.54,7,5,1,0,0,0,0,2,0,0,,10,
phenyl carbamate,C7H7N1O2,000622-46-8,NC(=O)Oc1ccccc1,"hansch,c et al. (1995) ",1.08,7,7,1,2,0,0,0,0,0,0,,10,
2-(4-methylphenyl)acetic acid,C9H10O2,000622-47-9,Cc1ccc(CC(O)=O)cc1,"hansch,c et al. (1995) ",1.86,9,10,0,2,0,0,0,0,0,0,,11,
n-(4-iodophenyl)acetamide,C8H8I1N1O1,000622-50-4,CC(=O)Nc1ccc(I)cc1,"hansch,c et al. (1995) ",2.71,8,8,1,1,0,0,0,0,0,1,,11,
1-isothiocyanato-4-methylbenzene,C8H7N1S1,000622-59-3,Cc1ccc(cc1)N=C=S,"hansch,c et al. (1995) ",3.92,8,7,1,0,1,0,0,0,0,0,,10,
4-ethoxyphenol,C8H10O2,000622-62-8,CCOc1ccc(O)cc1,"hansch,c et al. (1995) ",1.81,8,10,0,2,0,0,0,0,0,0,,10,
isothiocyanatomethylbenzene,C8H7N1S1,000622-78-6,S=C=NCc1ccccc1,"hansch,c et al. (1995) ",3.16,8,7,1,0,1,0,0,0,0,0,,10,
n-propylaniline,C9H13N1,000622-80-0,CCCNc1ccccc1,"hansch,c et al. (1995) ",2.45,9,13,1,0,0,0,0,0,0,0,,10,
"diazenecarbonitrile, phenyl-",C7H5N3,000622-83-3,N#CN=Nc1ccccc1,pomona (1987) ,2.3,7,5,3,0,0,0,0,0,0,0,,10,
propoxybenzene,C9H12O1,000622-85-5,CCCOc1ccccc1,"hansch,c et al. (1995) ",3.18,9,12,0,1,0,0,0,0,0,0,,10,
1-ethyl-4-methylbenzene,C9H12,000622-96-8,CCc1ccc(C)cc1,sangster (1993) ,3.63,9,12,0,0,0,0,0,0,0,0,,9,
"benzonitrile, 4-chloro-",C7H4Cl1N1,000623-03-0,Clc1ccc(cc1)C#N,sangster (1994) ,2.47,7,4,1,0,0,0,0,1,0,0,,9,
4-(hydroxymethyl)phenol,C7H8O2,000623-05-2,OCc1ccc(O)cc1,"hansch,c et al. (1995) ",0.25,7,8,0,2,0,0,0,0,0,0,,9,
"n,4-dimethylaniline",C8H11N1,000623-08-5,CNc1ccc(C)cc1,"hansch,c et al. (1995) ",2.15,8,11,1,0,0,0,0,0,0,0,,9,
4-chloroanisole,C7H7Cl1O1,000623-12-1,COc1ccc(Cl)cc1,"hansch,c et al. (1995) ",2.78,7,7,0,1,0,0,0,1,0,0,,9,
"3-buten-2-one, 4-(2-furanyl)-",C8H8O2,000623-15-4,CC(=O)C=Cc1occc1,"hansch,c et al. (1995) ",1.35,8,8,0,2,0,0,0,0,0,0,,10,
terephthalonitrile,C8H4N2,000623-26-7,N#Cc1ccc(cc1)C#N,"hansch,c et al. (1995) ",0.93,8,4,2,0,0,0,0,0,0,0,,10,
"2-propenal, 3-(2-furanyl)-",C7H6O2,000623-30-3,O=CC=Cc1occc1,pomona (1987) ,1.15,7,6,0,2,0,0,0,0,0,0,,9,
hexan-3-ol,C6H14O1,000623-37-0,CCCC(O)CC,"funasaki,n et al. (1986) ",1.65,6,14,0,1,0,0,0,0,0,0,,7,
methyl butanoate,C5H10O2,000623-42-7,CCCC(=O)OC,"hansch,c et al. (1995) ",1.29,5,10,0,2,0,0,0,0,0,0,,7,
n-(methylcarbamoyl)acetamide,C4H8N2O2,000623-59-6,CNC(=O)NC(C)=O,"sotomatsu,t et al. (1987) ",-0.7,4,8,2,2,0,0,0,0,0,0,,8,
methyl pentanoate,C6H12O2,000624-24-8,CCCCC(=O)OC,"hansch,c et al. (1995) ",1.96,6,12,0,2,0,0,0,0,0,0,,8,
"1,4-diiodobenzene",C6H4I2,000624-38-4,Ic1ccc(I)cc1,"hansch,c et al. (1995) ",4.11,6,4,0,0,0,0,0,0,0,2,,8,
methyl 4-oxopentanoate,C6H10O3,000624-45-3,COC(=O)CCC(C)=O,sangster (1993) ,-0.13,6,10,0,3,0,0,0,0,0,0,,9,
"2-butenedioic acid (e)-, dimethyl ester",C6H8O4,000624-49-7,COC(=O)\C=C\C(=O)OC,"hansch,c et al. (1995) ",0.74,6,8,0,4,0,0,0,0,0,0,,10,
"1,2-diiodoethane",C2H4I2,000624-73-7,ICCI,"hansch,c et al. (1995) ",2.71,2,4,0,0,0,0,0,0,0,2,,4,
n-methylethanamine,C3H9N1,000624-78-2,CCNC,"hansch,c et al. (1995) ",0.15,3,9,1,0,0,0,0,0,0,0,,4,
formohydrazide,C1H4N2O1,000624-84-0,NNC=O,"hansch,c et al. (1995) ",-2.05,1,4,2,1,0,0,0,0,0,0,,4,
methylsulfanylethane,C3H8S1,000624-89-5,CCSC,"hansch,c et al. (1995) ",1.54,3,8,0,0,1,0,0,0,0,0,,4,
methyldisulfanylmethane,C2H6S2,000624-92-0,CSSC,"hansch,c et al. (1995) ",1.77,2,6,0,0,2,0,0,0,0,0,,4,
3-methylbutanenitrile,C5H9N1,000625-28-5,CC(C)CC#N,"hansch,c et al. (1995) ",1.07,5,9,1,0,0,0,0,0,0,0,,6,
3-penten-2-one,C5H8O1,000625-33-2,CC=CC(C)=O,"hansch,c et al. (1995) ",0.52,5,8,0,1,0,0,0,0,0,0,,6,
2-nitroethanol,C2H5N1O3,000625-48-9,OCC[N+]([O-])=O,"hansch,c et al. (1995) ",-0.42,2,5,1,3,0,0,0,0,0,0,,6,
ethylurea,C3H8N2O1,000625-52-5,CCNC(N)=O,"hansch,c et al. (1995) ",-0.74,3,8,2,1,0,0,0,0,0,0,,6,
ethylthiourea,C3H8N2S1,000625-53-6,CCNC(N)=S,"govers,h et al. (1986) ",-0.21,3,8,2,0,1,0,0,0,0,0,,6,
2-propan-2-ylsulfanylpropane,C6H14S1,000625-80-9,CC(C)SC(C)C,"hansch,c et al. (1995) ",2.84,6,14,0,0,1,0,0,0,0,0,,7,
"2,5-dimethyl-1h-pyrrole",C6H9N1,000625-84-3,Cc1[nH]c(C)cc1,"hansch,c et al. (1995) ",1.47,6,9,1,0,0,0,0,0,0,0,,7,
"2,5-dimethylfuran",C6H8O1,000625-86-5,Cc1oc(C)cc1,"hansch,c et al. (1995) ",2.24,6,8,0,1,0,0,0,0,0,0,,7,
"n,n-bis(2,2,2-trifluoroethyl)nitrous amide",C4H4F6N2O1,000625-89-8,FC(F)(F)CN(CC(F)(F)F)N=O,"hansch,c et al. (1995) ",2.15,4,4,2,1,0,0,6,0,0,0,,13,
3-iodoaniline,C6H6I1N1,000626-01-7,Nc1cccc(I)c1,sangster (1993) ,2.86,6,6,1,0,0,0,0,0,0,1,,8,
3-iodophenol,C6H5I1O1,000626-02-8,Oc1cccc(I)c1,"hansch,c et al. (1995) ",2.93,6,5,0,1,0,0,0,0,0,1,,8,
"1,3-(bis-chloromethyl)benzene",C8H8Cl2,000626-16-4,c1c(CCl)cccc1CCl,"hansch,c et al. (1995) ",2.72,8,8,0,0,0,0,0,2,0,0,,10,
"benzene-1,3-dicarbonitrile",C8H4N2,000626-17-5,N#Cc1cccc(c1)C#N,"hansch,c et al. (1995) ",0.8,8,4,2,0,0,0,0,0,0,0,,10,
"1,3,5-tribromobenzene",C6H3Br3,000626-39-1,Brc1cc(Br)cc(Br)c1,"hansch,c et al. (1995) ",4.51,6,3,0,0,0,0,0,0,3,0,,9,
"3,5-dichloroaniline",C6H5Cl2N1,000626-43-7,Nc1cc(Cl)cc(Cl)c1,"hansch,c et al. (1995) ",2.9,6,5,1,0,0,0,0,2,0,0,,9,
3-bromopyridine,C5H4Br1N1,000626-55-1,Brc1cccnc1,"hansch,c et al. (1995) ",1.6,5,4,1,0,0,0,0,0,1,0,,7,
3-chloropyridine,C5H4Cl1N1,000626-60-8,Clc1cccnc1,"hansch,c et al. (1995) ",1.33,5,4,1,0,0,0,0,1,0,0,,7,
4-chloropyridine,C5H4Cl1N1,000626-61-9,Clc1ccncc1,sangster (1994) ,1.28,5,4,1,0,0,0,0,1,0,0,,7,
1-methylpiperidine,C6H13N1,000626-67-5,CN1CCCCC1,"hansch,c et al. (1995) ",1.3,6,13,1,0,0,0,0,0,0,0,,7,
6-ethoxy-6-oxohexanoic acid,C8H14O4,000626-86-8,CCOC(=O)CCCCC(O)=O,chemicals inspection and testing institu (1992) ,0.91,8,14,0,4,0,0,0,0,0,0,,12,
hexan-2-ol,C6H14O1,000626-93-7,CCCCC(C)O,"funasaki,n et al. (1986) ",1.76,6,14,0,1,0,0,0,0,0,0,,7,
propyl carbamate,C4H9N1O2,000627-12-3,CCCOC(N)=O,"hansch,c et al. (1995) ",0.36,4,9,1,2,0,0,0,0,0,0,,7,
pent-1-yne,C5H8,000627-19-0,CCCC#C,"hansch,c et al. (1995) ",1.98,5,8,0,0,0,0,0,0,0,0,,5,
3-chloro-1-propanol,C3H7Cl1O1,000627-30-5,OCCCCl,"hansch,c et al. (1995) ",0.5,3,7,0,1,0,0,0,1,0,0,,5,
"1,3-diiodopropane",C3H6I2,000627-31-6,ICCCI,"hansch,c et al. (1995) ",3.02,3,6,0,0,0,0,0,0,0,2,,5,
n-methylpropan-1-amine,C4H11N1,000627-35-0,CCCNC,"hansch,c et al. (1995) ",0.84,4,11,1,0,0,0,0,0,0,0,,5,
dimethyl hexanedioate,C8H14O4,000627-93-0,COC(=O)CCCCC(=O)OC,"hansch,c et al. (1995) ",1.03,8,14,0,4,0,0,0,0,0,0,,12,
"butanenitrile, 4-chloro-",C4H6Cl1N1,000628-20-6,ClCCCC#N,"tanii,h & hashimoto,k (1984) ",0.56,4,6,1,0,0,0,0,1,0,0,,6,
1-methoxybutane,C5H12O1,000628-28-4,CCCCOC,"hansch,c et al. (1995) ",1.66,5,12,0,1,0,0,0,0,0,0,,6,
2-chloroethylether,C4H9Cl1O1,000628-34-2,ClCCOCCCl,"hansch,c et al. (1995) ",0.98,4,9,0,1,0,0,0,1,0,0,,6,
"cyclohexa-1,4-diene",C6H8,000628-41-1,C1C=CCC=C1,"hansch,c et al. (1995) ",2.3,6,8,0,0,0,0,0,0,0,0,,6,
2-methyl-1-(2-methylpropoxy)propane,C8H18O1,000628-55-7,CC(C)COCC(C)C,"funasaki,n et al. (1985) ",2.78,8,18,0,1,0,0,0,0,0,0,,9,
pentyl acetate,C7H14O2,000628-63-7,CCCCCOC(C)=O,"abraham,mh et al. (1994) ",2.3,7,14,0,2,0,0,0,0,0,0,,9,
hexanenitrile,C6H11N1,000628-73-9,CCCCCC#N,"tanii,h & hashimoto,k (1984) ",1.66,6,11,1,0,0,0,0,0,0,0,,7,
1-ethoxybutane,C6H14O1,000628-81-9,CCCCOCC,"hansch,c et al. (1995) ",2.03,6,14,0,1,0,0,0,0,0,0,,7,
1-thiocyanatobutane,C5H9N1S1,000628-83-1,CCCCSC#N,"hansch,c et al. (1995) ",2.03,5,9,1,0,1,0,0,0,0,0,,7,
1-bromoheptane,C7H15Br1,000629-04-9,CCCCCCCBr,"hansch,c et al. (1995) ",4.36,7,15,0,0,0,0,0,0,1,0,,8,
1-chloroheptane,C7H15Cl1,000629-06-1,CCCCCCCCl,"hansch,c et al. (1995) ",4.15,7,15,0,0,0,0,0,1,0,0,,8,
"1,2-diethoxyethane",C6H14O2,000629-14-1,CCOCCOCC,"hansch,c et al. (1995) ",0.66,6,14,0,2,0,0,0,0,0,0,,8,
"1,3,5,7-cyclooctatetraene",C8H8,000629-20-9,C1=CC=CC=CC=C1,"hansch,c et al. (1995) ",3.08,8,8,0,0,0,0,0,0,0,0,,8,
"octa-2,4,6-triynedinitrile",C8H12N2,000629-40-3,N#CC#CC#CC#CC#N,"tanii,h & hashimoto,k (1985) ",0.59,8,12,2,0,0,0,0,0,0,0,,10,
tetradecane,C14H30,000629-59-4,CCCCCCCCCCCCCC,"hansch,c et al. (1995) ",7.2,14,30,0,0,0,0,0,0,0,0,,14,
"2,2-dimethylpropanenitrile",C5H9N1,000630-18-2,CC(C)(C)C#N,"hansch,c et al. (1995) ",1.08,5,9,1,0,0,0,0,0,0,0,,6,
ouabain,C29H44O12,000630-60-4,C[C@@H]1O[C@@H](O[C@H]2C[C@@H](O)[C@]3(CO)C4[C@H](O)C[C@]5(C)[C@H](CC[C@]5(O)C4CC[C@]3(O)C2)C6=CC(=O)OC6)[C@H](O)[C@H](O)[C@H]1O,sangster (1994) ,-2,29,44,0,12,0,0,0,0,0,0,,41,
"1,1,3,3-tetramethylurea",C5H12N2O1,000632-22-4,CN(C)C(=O)N(C)C,"hansch,c et al. (1995) ",0.19,5,12,2,1,0,0,0,0,0,0,,8,
"2,6-dimethylbenzoic acid",C9H10O2,000632-46-2,Cc1cccc(C)c1C(O)=O,"sotomatsu,t et al. (1993) ",2.21,9,10,0,2,0,0,0,0,0,0,,11,
[5-(hydroxymethyl)-3-methoxy-2-methylpyridin-4-yl]methanol,C9H13N1O3,000633-72-7,COc1c(C)ncc(CO)c1CO,"hansch,c et al. (1995) ",-0.1,9,13,1,3,0,0,0,0,0,0,,13,
"1,2,3-trimethoxybenzene",C9H12O3,000634-36-6,COc1cccc(OC)c1OC,pomona (1987) ,1.53,9,12,0,3,0,0,0,0,0,0,,12,
"1,2,3,4-tetrachlorobenzene",C6H2Cl4,000634-66-2,Clc1ccc(Cl)c(Cl)c1Cl,"hansch,c et al. (1995) ",4.6,6,2,0,0,0,0,0,4,0,0,,10,
"2,3,4-trichloroaniline",C6H4Cl3N1,000634-67-3,Nc1ccc(Cl)c(Cl)c1Cl,sangster (1994) ,3.33,6,4,1,0,0,0,0,3,0,0,,10,
"2,3,4,5-tetrachloroaniline",C6H3Cl4N1,000634-83-3,Nc1cc(Cl)c(Cl)c(Cl)c1Cl,sangster (1994) ,4.27,6,3,1,0,0,0,0,4,0,0,,11,
"1,2,3,5-tetrachlorobenzene",C6H2Cl4,000634-90-2,Clc1cc(Cl)c(Cl)c(Cl)c1,"hansch,c et al. (1995) ",4.56,6,2,0,0,0,0,0,4,0,0,,10,
"3,4,5-trichloroaniline",C6H4Cl3N1,000634-91-3,Nc1cc(Cl)c(Cl)c(Cl)c1,"hansch,c et al. (1995) ",3.32,6,4,1,0,0,0,0,3,0,0,,10,
"2,4,6-trichloroaniline",C6H4Cl3N1,000634-93-5,Nc1c(Cl)cc(Cl)cc1Cl,sangster (1994) ,3.52,6,4,1,0,0,0,0,3,0,0,,10,
1h-pyrrole-2-carboxylic acid,C5H5N1O2,000634-97-9,OC(=O)c1[nH]ccc1,pomona (1987) ,0.85,5,5,1,2,0,0,0,0,0,0,,8,
2-amino-5-chlorobenzoic acid,C7H6Cl1N1O2,000635-21-2,Nc1ccc(Cl)cc1C(O)=O,"hansch,c et al. (1995) ",1.57,7,6,1,2,0,0,0,1,0,0,,11,
"benzenamine, 4-chloro-3-nitro-",C6H5Cl1N2O2,000635-22-3,Nc1ccc(Cl)c(c1)[N+]([O-])=O,"hansch,c et al. (1995) ",2.06,6,5,2,2,0,0,0,1,0,0,,11,
"1,2,3,4-tetrahydroquinoline",C9H11N1,000635-46-1,C1CNc2ccccc2C1,"hansch,c et al. (1995) ",2.29,9,11,1,0,0,0,0,0,0,0,,10,
1-phenylpyrrole,C10H9N1,000635-90-5,c1ccc(cc1)n2cccc2,"hansch,c et al. (1995) ",3.08,10,9,1,0,0,0,0,0,0,0,,11,
n-phenylbenzenecarbothioamide,C13H11N1S1,000636-04-4,S=C(Nc1ccccc1)c2ccccc2,pomona (1987) ,3.03,13,11,1,0,1,0,0,0,0,0,,15,
"1,2,4,5-tetrabromobenzene",C6H2Br4,000636-28-2,Brc1cc(Br)c(Br)cc1Br,"hansch,c et al. (1995) ",5.13,6,2,0,0,0,0,0,0,4,0,,10,
"2,4,5-trichloroaniline",C6H4Cl3N1,000636-30-6,Nc1cc(Cl)c(Cl)cc1Cl,sangster (1994) ,3.45,6,4,1,0,0,0,0,3,0,0,,10,
thiophen-2-ylmethanol,C5H6O1S1,000636-72-6,OCc1sccc1,"hansch,c et al. (1995) ",0.87,5,6,0,1,1,0,0,0,0,0,,7,
4-nitrobenzohydrazide,C7H7N3O3,000636-97-5,NNC(=O)c1ccc(cc1)[N+]([O-])=O,"hansch,c et al. (1995) ",0.35,7,7,3,3,0,0,0,0,0,0,,13,
beta-methylstyrene,C9H10,000637-50-3,CC=Cc1ccccc1,"hansch,c et al. (1995) ",3.35,9,10,0,0,0,0,0,0,0,0,,9,
n-phenylethanethioamide,C8H9N1S1,000637-53-6,CC(=S)Nc1ccccc1,"hansch,c et al. (1995) ",1.71,8,9,1,0,1,0,0,0,0,0,,10,
3-bromopropylbenzene,C9H11Br1,000637-59-2,BrCCCc1ccccc1,"hansch,c et al. (1995) ",3.72,9,11,0,0,0,0,0,0,1,0,,10,
quinone chloroimide,C6H4Cl1N1O1,000637-61-6,ClN=C1C=CC(=O)C=C1,pomona (1987) ,1.26,6,4,1,1,0,0,0,1,0,0,,9,
p-benzoquinone oxime,C6H5N1O2,000637-62-7,C1(=NO)C=CC(=O)C=C1,"hansch,c et al. (1995) ",1.08,6,5,1,2,0,0,0,0,0,0,,9,
n-(acetylcarbamoyl)acetamide,C5H8N2O3,000638-20-0,CC(=O)NC(=O)NC(C)=O,"hansch,c et al. (1995) ",-0.68,5,8,2,3,0,0,0,0,0,0,,10,
pentyl carbamate,C6H13N1O2,000638-42-6,CCCCCOC(N)=O,"hansch,c et al. (1995) ",1.35,6,13,1,2,0,0,0,0,0,0,,9,
2-ethylsulfanylethylsulfanyl-dimethoxy-sulfanylidenephosphorane,C6H15O2P1S3,000640-15-3,CCSCCS[P](=S)(OC)OC,"tomlin,c (1997) ",3.15,6,15,0,2,3,1,0,0,0,0,,12,
2-fluoroacetamide,C2H4F1N1O1,000640-19-7,NC(=O)CF,"hansch,c et al. (1995) ",-1.05,2,4,1,1,0,0,1,0,0,0,,5,
"n,4-dimethylbenzenesulfonamide",C8H11N1O2S1,000640-61-9,CN[S](=O)(=O)c1ccc(C)cc1,"larsen,jd et al. (1988) ",1.28,8,11,1,2,1,0,0,0,0,0,,12,
"2-[4-(3,7-dihydroxy-10,13-dimethyl-2,3,4,5,6,7,8,9,11,12,14,15,16,17-tetradecahydro-1h-cyclopenta[a]phenanthren-17-yl)pentanoylamino]acetic acid",C26H43N1O5,064480-66-6,CC(CCC(=O)NCC(O)=O)C1CCC2C3C(O)CC4CC(O)CCC4(C)C3CCC12C,"roda,a et al. (1990) ",2.02,26,43,1,5,0,0,0,0,0,0,,32,
2-propan-2-ylaniline,C9H13N1,000643-28-7,CC(C)c1ccccc1N,"hansch,c et al. (1995) ",2.12,9,13,1,0,0,0,0,0,0,0,,10,
1-methyl-4-phenylbenzene,C13H12,000644-08-6,Cc1ccc(cc1)c2ccccc2,"doucette,wj & andren,aw (1987) ",4.63,13,12,0,0,0,0,0,0,0,0,,13,
2-propylphenol,C9H12O1,000644-35-9,CCCc1ccccc1O,"hansch,c et al. (1995) ",2.93,9,12,0,1,0,0,0,0,0,0,,10,
1-iodo-3-nitrobenzene,C6H4I1N1O2,000645-00-1,[O-][N+](=O)c1cccc(I)c1,"hansch,c et al. (1995) ",2.94,6,4,1,2,0,0,0,0,0,1,,10,
"n2,n2,n4,n4,n6,n6-hexamethyl-1,3,5-triazine-2,4,6-triamine",C9H18N6,000645-05-6,CN(C)c1nc(nc(n1)N(C)C)N(C)C,"hansch,c et al. (1995) ",2.73,9,18,6,0,0,0,0,0,0,0,,15,
3-nitrobenzamide,C7H6N2O3,000645-09-0,NC(=O)c1cccc(c1)[N+]([O-])=O,"hansch,c et al. (1995) ",0.77,7,6,2,3,0,0,0,0,0,0,,12,
1-(4-propan-2-ylphenyl)ethanone,C11H14O1,000645-13-6,CC(C)c1ccc(cc1)C(C)=O,"hansch,c et al. (1995) ",2.98,11,14,0,1,0,0,0,0,0,0,,12,
4-propylphenol,C9H12O1,000645-56-7,CCCc1ccc(O)cc1,sangster (1993) ,3.2,9,12,0,1,0,0,0,0,0,0,,10,
3-phenylpropanenitrile,C9H9N1,000645-59-0,N#CCCc1ccccc1,"hansch,c et al. (1995) ",1.72,9,9,1,0,0,0,0,0,0,0,,10,
"1,3-dioxolane",C3H6O2,000646-06-0,C1COCO1,"hansch,c et al. (1995) ",-0.37,3,6,0,2,0,0,0,0,0,0,,5,
1-nitrohexane,C6H13N1O2,000646-14-0,CCCCCC[N+]([O-])=O,"hansch,c et al. (1995) ",2.7,6,13,1,2,0,0,0,0,0,0,,9,
heptanedinitrile,C7H10N2,000646-20-8,N#CCCCCCC#N,"tanii,h & hashimoto,k (1985) ",0.05,7,10,2,0,0,0,0,0,0,0,,9,
"3,3,4,4,5,5,6,6,7,7,8,8,8-tridecafluorooctan-1-ol",C8H5F13O1,000647-42-7,OCCC(F)(F)C(F)(F)C(F)(F)C(F)(F)C(F)(F)C(F)(F)F,"carmosini,n & lee,sl (2008) ",4.54,8,5,0,1,0,0,13,0,0,0,,22,
4-amino-n-(5-methoxypyrimidin-2-yl)benzenesulfonamide,C11H12N4O3S1,000651-06-9,COc1cnc(N[S](=O)(=O)c2ccc(N)cc2)nc1,"hansch,c et al. (1995) ",0.41,11,12,4,3,1,0,0,0,0,0,,19,
"1,2,3,4,5-pentafluoro-6-methylsulfonylbenzene",C7H3F5O2S1,000651-85-4,C[S](=O)(=O)c1c(F)c(F)c(F)c(F)c1F,"hansch,c et al. (1995) ",1.11,7,3,0,2,1,0,5,0,0,0,,15,
"2,3,5,6-tetrafluoro-4-methylbenzoic acid",C8H4F4O2,000652-32-4,Cc1c(F)c(F)c(C(O)=O)c(F)c1F,sangster (1994) ,3.15,8,4,0,2,0,0,4,0,0,0,,14,
"n-(2,3,4,5,6-pentafluorophenyl)acetamide",C8H4F5N1O1,000653-22-5,CC(=O)Nc1c(F)c(F)c(F)c(F)c1F,"nakagawa,y et al. (1992) ",1.7,8,4,1,1,0,0,5,0,0,0,,15,
3-(benzotriazol-1-yl)butanoic acid,C10H11N3O2,000654-13-7,CC(CC(O)=O)n1nnc2ccccc12,"sparatore,f et al. (1988) ",-0.2,10,11,3,2,0,0,0,0,0,0,,15,
3-(benzotriazol-1-yl)propanoic acid,C9H9N3O2,000654-15-9,OC(=O)CCn1nnc2ccccc12,"hansch,c et al. (1995) ",-0.63,9,9,3,2,0,0,0,0,0,0,,14,
4-(benzotriazol-1-yl)butanoic acid,C10H11N3O2,000654-19-3,OC(=O)CCCn1nnc2ccccc12,"hansch,c et al. (1995) ",0.01,10,11,3,2,0,0,0,0,0,0,,15,
"2,6-dimethylhydroquinone",C8H10O2,000654-42-2,Cc1cc(O)cc(C)c1O,biobyte (1995) ,1,8,10,0,2,0,0,0,0,0,0,,10,
(2-fluorophenyl)urea,C7H7F1N2O1,000656-31-5,NC(=O)Nc1ccccc1F,"hansch,c et al. (1995) ",0.88,7,7,2,1,0,0,1,0,0,0,,11,
2-cf3-5-chlorobenzimidazole,C8H4Cl1F3N2,000656-49-5,C1=CC2=C(C=C1Cl)NC(=N2)C(F)(F)F,"hansch,c et al. (1995) ",3.39,8,4,2,0,0,0,3,1,0,0,,14,
"1,1-difluoro-n-phenylmethanesulfonamide",C7H7F2N1O2S1,000658-43-5,FC(F)[S](=O)(=O)Nc1ccccc1,"hansch,c et al. (1995) ",1.95,7,7,1,2,1,0,2,0,0,0,,13,
2-amino-3-(4-hydroxyphenyl)-2-methylpropanoic acid,C10H13N1O3,000658-48-0,CC(N)(Cc1ccc(O)cc1)C(O)=O,"hansch,c et al. (1995) ",-1.89,10,13,1,3,0,0,0,0,0,0,,14,
(4-fluorophenyl)urea,C7H7F1N2O1,000659-30-3,NC(=O)Nc1ccc(F)cc1,"hansch,c et al. (1995) ",1.04,7,7,2,1,0,0,1,0,0,0,,11,
5-aminopentanoic acid,C5H11N1O2,000660-88-8,NCCCCC(O)=O,"hansch,c et al. (1995) ",-2.63,5,11,1,2,0,0,0,0,0,0,,8,
1-cyclohexyl-3-(4-methylphenyl)sulfonylurea,C14H20N2O3S1,000664-95-9,Cc1ccc(cc1)[S](=O)(=O)NC(=O)NC2CCCCC2,sangster (1993) ,2.9,14,20,2,3,1,0,0,0,0,0,,20,
2-phenyl-1h-imidazole,C9H8N2,000670-96-2,[nH]1ccnc1c2ccccc2,"hansch,c et al. (1995) ",1.88,9,8,2,0,0,0,0,0,0,0,,11,
4-[(2-methylhydrazinyl)methyl]-n-propan-2-ylbenzamide,C12H19N3O1,000671-16-9,CNNCc1ccc(cc1)C(=O)NC(C)C,"hansch,c et al. (1995) ",0.06,12,19,3,1,0,0,0,0,0,0,,16,
dimethyl-phenylphosphane,C8H11P1,000672-66-2,CP(C)c1ccccc1,"hansch,c et al. (1995) ",2.57,8,11,0,0,0,1,0,0,0,0,,9,
3-phenylpropyl carbamate,C10H13N1O2,000673-31-4,NC(=O)OCCCc1ccccc1,"tanaka,m et al. (1985) ",1.96,10,13,1,2,0,0,0,0,0,0,,13,
azocan-2-one,C7H13N1O1,000673-66-5,O=C1CCCCCCN1,"hansch,c et al. (1995) ",0.24,7,13,1,1,0,0,0,0,0,0,,9,
piperidin-2-one,C5H9N1O1,000675-20-7,O=C1CCCCN1,"hansch,c et al. (1995) ",-0.46,5,9,1,1,0,0,0,0,0,0,,7,
"1,1,1,2,2,3,3,4,4,5,5,5-dodecafluoropentane",C5F12,000678-26-2,FC(F)(F)C(F)(F)C(F)(F)C(F)(F)C(F)(F)F,pomona (1987) ,4.4,5,0,0,0,0,0,12,0,0,0,,17,
"3,3,4,4,5,5,6,6,7,7,8,8,9,9,10,10,10-heptadecafluorodecan-1-ol",C10H5F17O1,000678-39-7,OCCC(F)(F)C(F)(F)C(F)(F)C(F)(F)C(F)(F)C(F)(F)C(F)(F)C(F)(F)F,"carmosini,n & lee,sl (2008) ",5.58,10,5,0,1,0,0,17,0,0,0,,28,
n-bis(dimethylamino)phosphoryl-n-methylmethanamine,C6H18N3O1P1,000680-31-9,CN(C)[P](=O)(N(C)C)N(C)C,"hansch,c et al. (1995) ",0.28,6,18,3,1,0,1,0,0,0,0,,11,
"2,2-dimethylpentanedioic acid",C7H12O4,000681-57-2,CC(C)(CCC(O)=O)C(O)=O,"hansch,c et al. (1995) ",0.67,7,12,0,4,0,0,0,0,0,0,,11,
2-bromoacetamide,C2H4Br1N1O1,000683-57-8,NC(=O)CBr,"hansch,c et al. (1995) ",-0.52,2,4,1,1,0,0,0,0,1,0,,5,
"acetamide, 2,2-dichloro-",C2H3Cl2N1O1,000683-72-7,NC(=O)C(Cl)Cl,"hansch,c et al. (1995) ",0.19,2,3,1,1,0,0,0,2,0,0,,6,
"1,1,1,3,3,3-hexafluoropropan-2-one",C3F6O1,010057-27-9,FC(F)(F)C(=O)C(F)(F)F,"hansch,c et al. (1995) ",1.46,3,0,0,1,0,0,6,0,0,0,,10,
1-methyl-1-nitrosourea,C2H5N3O2,000684-93-5,CN(N=O)C(N)=O,"hansch,c et al. (1995) ",-0.03,2,5,3,2,0,0,0,0,0,0,,7,
"n,n-diethylacetamide",C6H13N1O1,000685-91-6,CCN(CC)C(C)=O,"hansch,c et al. (1995) ",0.34,6,13,1,1,0,0,0,0,0,0,,8,
"ethyl n,n-dimethylcarbamate",C5H11N1O2,000687-48-9,CCOC(=O)N(C)C,"hansch,c et al. (1995) ",0.89,5,11,1,2,0,0,0,0,0,0,,8,
4-oxo-2-propylpentanoic acid,C8H14O3,000688-04-0,CCCC(CC(C)=O)C(O)=O,"hansch,c et al. (1995) ",1.31,8,14,0,3,0,0,0,0,0,0,,11,
2-ethylhexyl 2-methylprop-2-enoate,C12H22O2,000688-84-6,CCCCC(CC)COC(=O)C(C)=C,sangster (1993) ,4.54,12,22,0,2,0,0,0,0,0,0,,14,
1-butylbiguanide,C6H15N5,000692-13-7,CCCCNC(=N)NC(N)=N,"hansch,c et al. (1995) ",-1.2,6,15,5,0,0,0,0,0,0,0,,11,
"2-decene-4,6,8-triynoic acid, methyl ester, (z)-",C11H8O2,002739-57-3,COC(=O)\C=C/C#CC#CC#CC,"mclachlan,d et al. (1986) ",2.42,11,8,0,2,0,0,0,0,0,0,,13,
hex-1-yne,C6H10,000693-02-7,CCCCC#C,"hansch,c et al. (1995) ",2.73,6,10,0,0,0,0,0,0,0,0,,6,
693-54-9,C10H20O1,000693-54-9,CCCCCCCCC(C)=O,"tanii,h et al. (1986) ",3.73,10,20,0,1,0,0,0,0,0,0,,11,
"4-methyl-1,3-thiazole",C4H5N1S1,000693-95-8,Cc1cscn1,"hansch,c et al. (1995) ",0.97,4,5,1,0,1,0,0,0,0,0,,6,
2-methyl-1h-imidazole,C4H6N2,000693-98-1,Cc1[nH]ccn1,"hansch,c et al. (1995) ",0.24,4,6,2,0,0,0,0,0,0,0,,6,
1-methylpyridin-2-one,C6H7N1O1,000694-85-9,CN1C=CC=CC1=O,"hansch,c et al. (1995) ",-0.23,6,7,1,1,0,0,0,0,0,0,,8,
695-05-6,C7H8O1,000695-05-6,O=C1C2CC3C(C2)C13,"lodge,kb (1999) ",0.81,7,8,0,1,0,0,0,0,0,0,,8,
1-methylpyridin-4-one,C6H7N1O1,000695-19-2,CN1C=CC(=O)C=C1,biobyte (1995) ,-1.22,6,7,1,1,0,0,0,0,0,0,,8,
4-methylpyridin-2-amine,C6H8N2,000695-34-1,Cc1ccnc(N)c1,daylight (1999) ,0.56,6,8,2,0,0,0,0,0,0,0,,8,
"2-(2-methyl-4,5-dihydroimidazol-1-yl)ethanol",C6H12N2O1,000695-94-3,CC1=NCCN1CCO,"hansch,c et al. (1995) ",0.04,6,12,2,1,0,0,0,0,0,0,,9,