Names,Formula,CAS No,SMILES,Reference,Exp logp,C,H,N,O,S,P,F,Cl,Br,I,,,
"5a-ethenyl-4-hydroxy-3,9-dimethylidene-3a,4,5,6,9a,9b-hexahydrofuro[5,4-f]isochromene-2,8-dione",C15H16O5,018542-37-5,OC1CC2(COC(=O)C(=C)C2C3OC(=O)C(=C)C13)C=C,"hansch,c et al. (1995) ",0.31,15,16,0,5,0,0,0,0,0,0,,20,
methyl n-[3-(trifluoromethyl)phenyl]carbamate,C9H8F3N1O2,018584-93-5,COC(=O)Nc1cccc(c1)C(F)(F)F,"takahashi,k et al. (1988) ",2.74,9,8,1,2,0,0,3,0,0,0,,15,
"2,4-pyrimidinediamine, 5-(3,4-dichlorophenyl)-6-",C12H12Cl2N4,018588-57-3,Clc1c(Cl)ccc(c2c(N)nc(N)nc2CC)c1,sangster (1993) ,3.03,12,12,4,0,0,0,0,2,0,0,,18,
"4-pyridazinol, 3-amino-6-methyl-",C5H7N3O1,018591-86-1,Cc1cc(O)c(N)nn1,sangster (1994) ,-0.85,5,7,3,1,0,0,0,0,0,0,,9,
5-methyl-4-phenyldithiole-3-thione,C10H8S3,018648-91-4,CC1=C(C(=S)SS1)c2ccccc2,"bona,m et al. (1995) ",3.17,10,8,0,0,3,0,0,0,0,0,,13,
"1-(1,3-benzothiazol-2-yl)-1,3-dimethylurea",C10H11N3O1S1,018691-97-9,CNC(=O)N(C)c1sc2ccccc2n1,"tomlin,c (1994) ",2.64,10,11,3,1,1,0,0,0,0,0,,15,
4-methoxy-2-(5-methoxy-3-methylpyrazol-1-yl)-6-methylpyrimidine,C11H14N4O2,018694-40-1,COc1cc(C)nc(n1)n2nc(C)cc2OC,"hansch,c & leo,aj (1985) ",1.26,11,14,4,2,0,0,0,0,0,0,,17,
4-(5-methoxy-3-methylpyrazol-1-yl)pyrimidine,C9H10N4O1,018694-41-2,COc1cc(C)nn1c2ccncn2,"hansch,c & leo,aj (1985) ",0.5,9,10,4,1,0,0,0,0,0,0,,14,
4-methoxy-6-(5-methoxy-3-methylpyrazol-1-yl)pyrimidine,C10H12N4O2,018694-42-3,COc1cc(ncn1)n2nc(C)cc2OC,"hansch,c & leo,aj (1985) ",1.53,10,12,4,2,0,0,0,0,0,0,,16,
"2-(5-methoxy-3-methylpyrazol-1-yl)-4,6-dimethylpyrimidine",C11H14N4O1,018694-43-4,COc1cc(C)nn1c2nc(C)cc(C)n2,"hansch,c & leo,aj (1985) ",0.73,11,14,4,1,0,0,0,0,0,0,,16,
2-(2-iodophenyl)acetic acid,C8H7I1O2,018698-96-9,OC(=O)Cc1ccccc1I,"laznicek,m & kvetina,j (1988) ",2.33,8,7,0,2,0,0,0,0,0,1,,11,
"4,4'-diisothiocyanatebiphenyl",C14H8N2S2,018705-45-8,c1c(c2ccc(N=C=S)cc2)ccc(N=C=S)c1,"hansch,c & leo,aj (1985) ",5.5,14,8,2,0,2,0,0,0,0,0,,18,
oprea1_302700,C10H11N3O1S1,018740-23-3,C1CN(CCO1)c2ncnc3ccsc23,pomona (1987) ,1.65,10,11,3,1,1,0,0,0,0,0,,15,
2-amino-1-benzothiophene-3-carbonitrile,C9H6N2S1,018774-47-5,Nc1sc2ccccc2c1C#N,"hansch,c & leo,aj (1985) ",2.17,9,6,2,0,1,0,0,0,0,0,,12,
124-benzthiadiazin-1-o2-3-phenyl,C13H10N2O2S1,018818-44-5,S1(=O)(=O)c3ccccc3NC(c2ccccc2)=N1,"hansch & leo, 1985",1.61,13,10,2,2,1,0,0,0,0,0,,18,
"4-amino-6-methyl-3-methylsulfanyl-1,2,4-triazin-5-one",C5H8N4O1S1,018826-96-5,CSC1=NN=C(C)C(=O)N1N,"hansch,c & leo,aj (1985) ",-0.16,5,8,4,1,1,0,0,0,0,0,,11,
"4-amino-3-methoxy-6-propan-2-yl-1,2,4-triazin-5-one",C7H12N4O2,018826-97-6,COC1=NN=C(C(C)C)C(=O)N1N,"hansch,c & leo,aj (1985) ",-0.06,7,12,4,2,0,0,0,0,0,0,,13,
"diethoxy-[(5-phenyl-1,2-oxazol-3-yl)oxy]-sulfanylidenephosphorane",C13H16N1O4P1S1,018854-01-8,CCO[P](=S)(OCC)Oc1cc(on1)c2ccccc2,"saito,h et al. (1993) ",3.73,13,16,1,4,1,1,0,0,0,0,,20,
n-methyl-2-(phenoxy)-n-phenylacetamide,C15H15N1O2,018859-21-7,CN(C(=O)COc1ccccc1)c2ccccc2,"hansch,c & leo,aj (1985) ",2.25,15,15,1,2,0,0,0,0,0,0,,18,
4-bromo-2-methyl-5-nitroimidazole,C4H4Br1N3O2,018874-52-7,Cc1[nH]c(c(Br)n1)[N+]([O-])=O,"suwinski,j et al. (1985) ",1.14,4,4,3,2,0,0,0,0,1,0,,10,
"4,7,7-trimethylbicyclo[3.1.1]hept-3-en-2-ol",C10H16O1,018881-04-4,CC1=CC(O)C2CC1C2(C)C,"griffin,s et al. (1999) ",3.16,10,16,0,1,0,0,0,0,0,0,,11,
"benzobicyclo(222)octene,2endo-meamino",C13H17N1,018883-06-2,CNC1C2c3c(C(CC2)C1)cccc3,"hansch,c et al. (1995) ",2.59,13,17,1,0,0,0,0,0,0,0,,14,
"1-methyl-1-nitroso-3-[2,4,5-trihydroxy-6-(hydroxymethyl)oxan-3-yl]urea",C8H15N3O7,066395-17-3,CN(N=O)C(=O)NC1C(O)OC(CO)C(O)C1O,"sosnovsky,g & rao,num (1991) ",-0.85,8,15,3,7,0,0,0,0,0,0,,18,
"n,n-dimethyl-2-phenylacetamide",C10H13N1O1,018925-69-4,CN(C)C(=O)Cc1ccccc1,"suryanarayana,mvs et al. (1991) ",1.48,10,13,1,1,0,0,0,0,0,0,,12,
2-methylbutanenitrile,C5H9N1,018936-17-9,CCC(C)C#N,"tanii,h & hashimoto,k (1984) ",1.05,5,9,1,0,0,0,0,0,0,0,,6,
4-propoxyphenol,C9H12O2,018979-50-5,CCCOc1ccc(O)cc1,"hansch,c et al. (1995) ",2.33,9,12,0,2,0,0,0,0,0,0,,11,
4-pentoxyphenol,C11H16O2,018979-53-8,CCCCCOc1ccc(O)cc1,"hansch,c et al. (1995) ",3.5,11,16,0,2,0,0,0,0,0,0,,13,
3-butoxyphenol,C10H14O2,018979-72-1,CCCCOc1cccc(O)c1,"hansch,c et al. (1995) ",3.03,10,14,0,2,0,0,0,0,0,0,,12,
3-pentoxyphenol,C11H16O2,018979-73-2,CCCCCOc1cccc(O)c1,"hansch,c et al. (1995) ",3.63,11,16,0,2,0,0,0,0,0,0,,13,
"2-ethoxy-6-(hydroxymethyl)oxane-3,4,5-triol",C8H16O6,018997-88-1,CCOC1OC(CO)C(O)C(O)C1O,sangster (1993) ,-2.28,8,16,0,6,0,0,0,0,0,0,,14,
"4-(dipropylamino)-3,5-dinitrobenzenesulfonamide",C12H18N4O6S1,019044-88-3,CCCN(CCC)c1c(cc(cc1[N+]([O-])=O)[S](N)(=O)=O)[N+]([O-])=O,"tomlin,c (1997) ",3.73,12,18,4,6,1,0,0,0,0,0,,23,
"1h-indene-1,3(2h)-dione, 2-(3,5-dimethoxyphenyl)",C17H14O4,019055-50-6,COc1cc(OC)cc(C2C(=O)c3c(cccc3)C2(=O))c1,sangster (1993) ,2.86,17,14,0,4,0,0,0,0,0,0,,21,
"2-[3-(trifluoromethyl)phenyl]indene-1,3-dione",C16H9F3O2,019055-70-0,FC(F)(F)c1cccc(c1)C2C(=O)c3ccccc3C2=O,sangster (1993) ,3.78,16,9,0,2,0,0,3,0,0,0,,21,
"(2,6-difluorophenyl)methanol",C7H6F2O1,019064-18-7,OCc1c(F)cccc1F,"el tayar,n et al. (1991) ",1.12,7,6,0,1,0,0,2,0,0,0,,10,
"pyridazine, 3-methoxy-",C5H6N2O1,019064-65-4,COc1cccnn1,"yamagami,c et al. (1990) ",0.08,5,6,2,1,0,0,0,0,0,0,,8,
phthalazin-1-amine,C8H7N3,019064-69-8,Nc1nncc2ccccc12,"hansch,c et al. (1995) ",0.82,8,7,3,0,0,0,0,0,0,0,,11,
n-demethyl-4'-pentyl-clindamycin,C19H35Cl1N2O5S1,031101-25-4,CC(Cl)C(C2C(O)C(O)C(O)C(SC)O2)NC(=O)C1NCC(CCCCC)C1,biobyte starlist (2009) ,2.74,19,35,2,5,1,0,0,1,0,0,,28,
"2-(hydroxymethyl)piperidine-3,4,5-triol",C6H13N1O4,019130-96-2,OCC1NCC(O)C(O)C1O,sangster (1994) ,-1.8,6,13,1,4,0,0,0,0,0,0,,11,
"2-(bromomethyl)-2-(hydroxymethyl)propane-1,3-diol",C5H11Br1O3,019184-65-7,OCC(CO)(CO)CBr,"hansch,c & leo,aj (1985) ",-0.7,5,11,0,3,0,0,0,0,1,0,,9,
19202-92-7,C17H22O5,019202-92-7,CC1CC2OC(=O)C3(C)C2C(OC3(C)O)C4(C)C1C=CC4=O,"hansch,c et al. (1995) ",0.3,17,22,0,5,0,0,0,0,0,0,,22,
"benzoic acid, 4-chloro-2-(phenylamino)-",C13H10Cl1N1O2,019218-88-3,OC(=O)c1ccc(Cl)cc1Nc2ccccc2,sangster (1993) ,4.25,13,10,1,2,0,0,0,1,0,0,,17,
n-(3-iodophenyl)acetamide,C8H8I1N1O1,019230-45-6,CC(=O)Nc1cccc(I)c1,pomona (1987) ,2.64,8,8,1,1,0,0,0,0,0,1,,11,
2-(2-tert-butylphenoxy)acetic acid,C12H16O3,019271-90-0,CC(C)(C)c1ccccc1OCC(O)=O,"hansch,c et al. (1995) ",3.33,12,16,0,3,0,0,0,0,0,0,,15,
1h-indazol-5-amine,C7H7N3,019335-11-6,Nc1ccc2[nH]ncc2c1,"schultz,tw & applehans,fm (1985) ",0.65,7,7,3,0,0,0,0,0,0,0,,10,
2-hydroxy-n-(phenylmethyl)acetamide,C9H11N1O2,019340-77-3,OCC(=O)NCc1ccccc1,"hansch,c et al. (1995) ",0.55,9,11,1,2,0,0,0,0,0,0,,12,
1-(phenylmethoxy)-3-(propan-2-ylamino)propan-2-ol,C13H21N1O2,019343-24-9,CC(C)NCC(O)COCc1ccccc1,"mauleon,d et al. (1988) ",1.62,13,21,1,2,0,0,0,0,0,0,,16,
2-methoxypyridine-4-carbohydrazide,C7H9N3O2,019353-97-0,COc1cc(ccn1)C(=O)NN,"hansch,c et al. (1995) ",-0.1,7,9,3,2,0,0,0,0,0,0,,12,
1-(2-ethylsulfonylethyl)-2-methyl-5-nitroimidazole,C8H13N3O4S1,019387-91-8,CC[S](=O)(=O)CCn1c(C)ncc1[N+]([O-])=O,"hansch,c et al. (1995) ",-0.35,8,13,3,4,1,0,0,0,0,0,,16,
"6-(4-methylphenyl)-1,3,5-triazine-2,4-diamine",C10H11N5,019388-12-6,Cc1ccc(cc1)c2nc(N)nc(N)n2,"hansch,c et al. (1995) ",1.92,10,11,5,0,0,0,0,0,0,0,,15,
"benzene, 1,4-dichloro-2-methyl-",C7H6Cl2,019398-61-9,Cc1cc(Cl)ccc1Cl,biobyte (1995) ,3.97,7,6,0,0,0,0,0,2,0,0,,9,
"3-[(2-methylphenyl)methylidene]pentane-2,4-dione",C13H14O2,019411-71-3,CC(=O)C(=Cc1ccccc1C)C(C)=O,"hansch,c et al. (1995) ",1.98,13,14,0,2,0,0,0,0,0,0,,15,
"acetylacetone,4-chlorobenzal",C12H11Cl1O2,019411-75-7,Clc1ccc(C=C(C(=O)(C))C(=O)(C))cc1,"hansch,c et al. (1995) ",2.32,12,11,0,2,0,0,0,1,0,0,,15,
"ethylacetoacetate,4-chlorobenzal",C13H13Cl1O3,019411-80-4,CC(=O)C(=Cc1ccc(Cl)cc1)C(=O)OCC,"hansch,c et al. (1995) ",3.04,13,13,0,3,0,0,0,1,0,0,,17,
2-(phenylmethylidene)propanediamide,C10H10N2O2,019411-83-7,NC(=O)C(=Cc1ccccc1)C(N)=O,"hansch,c et al. (1995) ",-0.13,10,10,2,2,0,0,0,0,0,0,,14,
methyl 2-thiophen-2-ylacetate,C7H8O2S1,019432-68-9,COC(=O)Cc1sccc1,"hansch,c et al. (1995) ",1.51,7,8,0,2,1,0,0,0,0,0,,10,
methyl 3-hydroxybenzoate,C8H8O3,019438-10-9,COC(=O)c1cccc(O)c1,"hansch,c et al. (1995) ",1.89,8,8,0,3,0,0,0,0,0,0,,11,
"n-methyl-1,2,3,4-tetrahydronaphthalen-2-amine",C11H15N1,019485-85-9,CNC1CCc2ccccc2C1,sangster (1993) ,2.38,11,15,1,0,0,0,0,0,0,0,,12,
b-naphthylmethylisothiocyanate,C12H9N1S1,019495-05-7,S=C=NCc1ccc2ccccc2c1,"hansch,c & leo,aj (1985) ",4.42,12,9,1,0,1,0,0,0,0,0,,14,
"ethyl 2-(1,3-thiazol-4-yl)benzimidazole-1-carboxylate",C13H11N3O2S1,019541-20-9,CCOC(=O)N1C2=CC=CC=C2N=C1C3=CSC=N3,"nielsen,ls et al. (1992) ",2.51,13,11,3,2,1,0,0,0,0,0,,19,
n-[(4-tert-butylphenoxy)-methoxyphosphoryl]methanamine,C12H20N1O3P1,019590-04-6,CN[P](=O)(OC)Oc1ccc(cc1)C(C)(C)C,"hansch,c & leo,aj (1985) ",2.71,12,20,1,3,0,1,0,0,0,0,,17,
n-[(3-tert-butylphenoxy)-methoxyphosphoryl]methanamine,C12H20N1O3P1,019590-05-7,CN[P](=O)(OC)Oc1cccc(c1)C(C)(C)C,"hansch,c & leo,aj (1985) ",2.65,12,20,1,3,0,1,0,0,0,0,,17,
n-(2-iodophenyl)acetamide,C8H8I1N1O1,019591-17-4,CC(=O)Nc1ccccc1I,"nakagawa,y et al. (1992) ",1.62,8,8,1,1,0,0,0,0,0,1,,11,
"diethyl 2-(1,3-dithiolan-2-ylidene)propanedioate",C10H14O4S2,059937-29-0,CCOC(=O)C(C(=O)OCC)=C1SCCS1,biobyte starlist (2009) ,2.45,10,14,0,4,2,0,0,0,0,0,,16,
o=p(nc)(oc)o-2-cl phenyl,C8H11Cl1N1O3P1,019608-64-1,CNP(=O)(Oc1c(Cl)cccc1)OC,"hansch,c et al. (1995) ",1.61,8,11,1,3,0,1,0,1,0,0,,14,
oxadiazon,C15H18Cl2N2O3,019666-30-9,CC(C)Oc1cc(N2N=C(OC2=O)C(C)(C)C)c(Cl)cc1Cl,"hansch,c et al. (1995) ",4.8,15,18,2,3,0,0,0,2,0,0,,22,
o=p(nme)(ome)o-(4-cl-phenyl),C8H11Cl1N1O3P1,019670-19-0,CNP(=O)(Oc1ccc(Cl)cc1)OC,"hansch,c & leo,aj (1985) ",1.85,8,11,1,3,0,1,0,1,0,0,,14,
"2-acetamido-n,3-dimethylbutanamide",C8H16N2O2,019701-84-9,CNC(=O)C(NC(C)=O)C(C)C,"hansch,c & leo,aj (1985) ",-0.35,8,16,2,2,0,0,0,0,0,0,,12,
"dimethyl 2-(1,3-dithiolan-2-ylidene)propanedioate",C8H10O4S2,019723-86-5,COC(=O)C(C(=O)OC)=C1SCCS1,sangster (1993) ,1.51,8,10,0,4,2,0,0,0,0,0,,14,
n-(pyridin-3-ylmethyl)propan-2-amine,C9H14N2,019730-12-2,CC(C)NCc1cccnc1,"hansch,c et al. (1995) ",0.82,9,14,2,0,0,0,0,0,0,0,,11,
n-(pyridin-3-ylmethyl)propan-1-amine,C9H14N2,019730-13-3,CCCNCc1cccnc1,"hansch,c et al. (1995) ",0.9,9,14,2,0,0,0,0,0,0,0,,11,
n-ethyl-2-pyridin-3-ylethanamine,C9H14N2,019730-15-5,CCNCCc1cccnc1,"hansch,c et al. (1995) ",0.54,9,14,2,0,0,0,0,0,0,0,,11,
"pyrazine, 2,5-dichloro-",C4H2Cl2N2,019745-07-4,Clc1cnc(Cl)cn1,"yamagami,c et al. (1991) ",1.58,4,2,2,0,0,0,0,2,0,0,,8,
"3,4-di(phenyl)-1,2,5-oxadiazole",C14H10N2O1,019768-02-6,o1nc(c2ccccc2)c(n1)c3ccccc3,"calvino,r et al. (1992) ",3.83,14,10,2,1,0,0,0,0,0,0,,17,
"n-methyl-1,3-benzoxazol-2-amine",C8H8N2O1,019776-98-8,CNc1oc2ccccc2n1,"hansch,c et al. (1995) ",1.82,8,8,2,1,0,0,0,0,0,0,,11,
1-ethylazepan-2-one,C8H15N1O1,019797-08-1,CCN1CCCCCC1=O,"hansch,c & leo,aj (1985) ",0.65,8,15,1,1,0,0,0,0,0,0,,10,
4-amino-n-(4-methoxyphenyl)benzenesulfonamide,C13H14N2O3S1,019837-74-2,COc1ccc(N[S](=O)(=O)c2ccc(N)cc2)cc1,"hansch,c et al. (1995) ",1.51,13,14,2,3,1,0,0,0,0,0,,19,
4-amino-n-(2-methoxyphenyl)benzenesulfonamide,C13H14N2O3S1,019837-84-4,COc1ccccc1N[S](=O)(=O)c2ccc(N)cc2,"hansch,c et al. (1995) ",1.56,13,14,2,3,1,0,0,0,0,0,,19,
n1-(2-chlorophenyl)sulfanilamide,C12H11Cl1N2O2S1,019837-85-5,Nc1ccc(cc1)[S](=O)(=O)Nc2ccccc2Cl,"hansch,c et al. (1995) ",2,12,11,2,2,1,0,0,1,0,0,,18,
pyrazine-2-carbonitrile,C5H3N3,019847-12-2,N#Cc1cnccn1,"yamagami,c et al. (1990a) ",-0.01,5,3,3,0,0,0,0,0,0,0,,8,
"2-(3,4-dihydroxyphenyl)-5-hydroxychromen-4-one",C15H10O5,019852-25-6,Oc1ccc(cc1O)C2=CC(=O)c3c(O)cccc3O2,"perrissoud,d & testa,b (1986) ",3.31,15,10,0,5,0,0,0,0,0,0,,20,
1-(4-methylphenyl)-n-phenylmethanimine oxide,C14H13N1O1,019865-55-5,Cc1ccc(cc1)C=[N+]([O-])c2ccccc2,"kirchner,jj et al. (1985) ",2.41,14,13,1,1,0,0,0,0,0,0,,16,
metoxuron,C10H13Cl1N2O2,019937-59-8,COc1ccc(NC(=O)N(C)C)cc1Cl,"hansch,c et al. (1995) ",1.64,10,13,2,2,0,0,0,1,0,0,,15,
n-ethylpropan-2-amine,C5H13N1,019961-27-4,CCNC(C)C,"hansch,c et al. (1995) ",0.93,5,13,1,0,0,0,0,0,0,0,,6,
"3,5-dimethyladamantan-1-amine",C12H21N1,019982-08-2,CC12CC3CC(C)(C1)CC(N)(C3)C2,"hansch,c et al. (1995) ",3.28,12,21,1,0,0,0,0,0,0,0,,13,
"1,2,3,4-tetrachloronaphthalene",C10H4Cl4,020020-02-4,Clc1c(Cl)c(Cl)c2ccccc2c1Cl,"hansch,c et al. (1995) ",5.75,10,4,0,0,0,0,0,4,0,0,,14,
"1,2,4-benzothiadiazine-1,1-dioxide-34-methyl-7-t",C9H7F3N2O2S1,020246-63-3,CC1NS(=O)(=O)c2c(ccc(C(F)(F)F)c2)N=1,biobyte starlist (2009) ,1.51,9,7,2,2,1,0,3,0,0,0,,17,
2-undecylphenol,C17H28O1,020056-71-7,CCCCCCCCCCCc1ccccc1O,"itokawa,h et al. (1989) ",7.17,17,28,0,1,0,0,0,0,0,0,,18,
"phenol, 3-undecyl-",C17H28O1,020056-72-8,CCCCCCCCCCCc1cccc(O)c1,"itokawa,h et al. (1989) ",6.98,17,28,0,1,0,0,0,0,0,0,,18,
4-undecylphenol,C17H28O1,020056-73-9,CCCCCCCCCCCc1ccc(O)cc1,"itokawa,h et al. (1989) ",7.18,17,28,0,1,0,0,0,0,0,0,,18,
"a-(2,2,2-trichloroethyl)styrene",C10H9Cl3,020057-31-2,ClC(Cl)(Cl)CC(=C)c1ccccc1,"hansch,c et al. (1995) ",4.56,10,9,0,0,0,0,0,3,0,0,,13,
"2-butenoic acid, ester derivative",C20H24O7,020071-53-8,CC42OC4C(O)C1C(=C)CC(OC(=O)C(C)=CC)C3C(OC(=O)C3=C)C21O,sangster (1993) ,1.69,20,24,0,7,0,0,0,0,0,0,,27,
"acetamide, 2-chloro-n-(3,4-dichlorophenyl)",C8H6Cl3N1O1,020149-84-2,Clc1c(Cl)ccc(NC(=O)CCl)c1,pomona (1987) ,3.29,8,6,1,1,0,0,0,3,0,0,,13,
n-methyl-1-pyridin-3-ylmethanamine,C7H10N2,020173-04-0,CNCc1cccnc1,"hansch,c et al. (1995) ",0.39,7,10,2,0,0,0,0,0,0,0,,9,
n-(pyridin-3-ylmethyl)butan-1-amine,C10H16N2,020173-12-0,CCCCNCc1cccnc1,"hansch,c et al. (1995) ",1.34,10,16,2,0,0,0,0,0,0,0,,12,
n-propan-2-yl-n-(pyridin-3-ylmethyl)propan-2-amine,C12H20N2,020173-18-6,CC(C)N(Cc1cccnc1)C(C)C,"hansch,c et al. (1995) ",2.27,12,20,2,0,0,0,0,0,0,0,,14,
3-pyridine ethanamine,C7H10N2,020173-24-4,NCCc1cnccc1,"hansch,c et al. (1995) ",-0.11,7,10,2,0,0,0,0,0,0,0,,9,
"n,n-dimethyl-2-pyridin-3-ylethanamine",C9H14N2,020173-26-6,CN(C)CCc1cccnc1,"hansch,c et al. (1995) ",0.82,9,14,2,0,0,0,0,0,0,0,,11,
3-(2-pyrrolidin-1-ylethyl)pyridine,C11H16N2,020173-28-8,C1CCN(C1)CCc2cccnc2,"hansch,c et al. (1995) ",1.34,11,16,2,0,0,0,0,0,0,0,,13,
"n,n-diethyl-2-pyridin-3-ylethanamine",C11H18N2,020173-34-6,CCN(CC)CCc1cccnc1,"hansch,c et al. (1995) ",1.23,11,18,2,0,0,0,0,0,0,0,,13,
n-propylbutan-1-amine,C7H17N1,020193-21-9,CCCCNCCC,"hansch,c et al. (1995) ",2.12,7,17,1,0,0,0,0,0,0,0,,8,
2-ethylpentanoic acid,C7H14O2,020225-24-5,CCCC(CC)C(O)=O,sangster (1994) ,2.23,7,14,0,2,0,0,0,0,0,0,,9,
n-(2-methoxyphenyl)diazenyl-n-methylmethanamine,C9H13N3O1,020240-99-7,COc1ccccc1N=NN(C)C,"hansch,c & leo,aj (1985) ",2.34,9,13,3,1,0,0,0,0,0,0,,13,
"1-(o-cl ph)-3,3-dimethyltriazene",C8H10Cl1N3,020241-00-3,CN(C)N=Nc1ccccc1Cl,"hansch,c & leo,aj (1985) ",3.03,8,10,3,0,0,0,0,1,0,0,,12,
n-methyl-n-(3-methylphenyl)diazenylmethanamine,C9H13N3,020241-03-6,CN(C)N=Nc1cccc(C)c1,"hansch,c & leo,aj (1985) ",2.85,9,13,3,0,0,0,0,0,0,0,,12,
"1-(3-cl ph)-3,3-dimethyltriazene",C8H10Cl1N3,020241-05-8,CN(C)N=Nc1cc(Cl)ccc1,"hansch,c et al. (1995) ",3.44,8,10,3,0,0,0,0,1,0,0,,12,
n-methyl-n-(3-nitrophenyl)diazenylmethanamine,C8H10N4O2,020241-06-9,CN(C)N=Nc1cccc(c1)[N+]([O-])=O,"hansch,c & leo,aj (1985) ",2.75,8,10,4,2,0,0,0,0,0,0,,14,
3-dimethylaminodiazenylbenzoic acid,C9H11N3O2,020241-07-0,CN(C)N=Nc1cccc(c1)C(O)=O,"hansch,c & leo,aj (1985) ",2.03,9,11,3,2,0,0,0,0,0,0,,14,
"7-phenylhept-2-ene-4,6-diynal",C13H8O1,020252-42-0,O=CC=CC#CC#Cc1ccccc1,"mclachlan,d et al. (1986) ",3.09,13,8,0,1,0,0,0,0,0,0,,14,
"2-(hydroxymethyl)-6-(4-methylphenoxy)oxane-3,4,5-triol",C13H18O6,020274-94-6,Cc1ccc(OC2OC(CO)C(O)C(O)C2O)cc1,"hansch,c & leo,aj (1985) ",-0.16,13,18,0,6,0,0,0,0,0,0,,19,
1-phenyl-3-propan-2-ylbenzene,C15H16,020282-30-8,CC(C)c1cccc(c1)c2ccccc2,tscats ,5.33,15,16,0,0,0,0,0,0,0,0,,15,
"5-[(4-methoxyphenyl)methyl]pyrimidine-2,4-diamine",C12H14N4O1,020285-70-5,COc1ccc(Cc2cnc(N)nc2N)cc1,"hansch,c & leo,aj (1985) ",1.34,12,14,4,1,0,0,0,0,0,0,,17,
2-ethylhexyl dodecanoate,C20H40O2,020292-08-4,CCCCCCCCCCCC(=O)OCC(CC)CCCC,"krop,hb et al. (1997) ",8.03,20,40,0,2,0,0,0,0,0,0,,22,
thiophene-2-carbothioamide,C5H5N1S2,020300-02-1,NC(=S)c1sccc1,"hansch,c et al. (1995) ",1.34,5,5,1,0,2,0,0,0,0,0,,8,
(2-ethoxyphenyl)-piperidin-1-ylmethanone,C14H19N1O2,020308-67-2,CCOc1ccccc1C(=O)N2CCCCC2,"suryanarayana,mvs et al. (1991) ",2.6,14,19,1,2,0,0,0,0,0,0,,17,
n-(4-tert-butylphenyl)acetamide,C12H17N1O1,020330-45-4,CC(=O)Nc1ccc(cc1)C(C)(C)C,pomona (1987) ,3.05,12,17,1,1,0,0,0,0,0,0,,14,
"5-[(3,5-dimethoxyphenyl)methyl]pyrimidine-2,4-diamine",C13H16N4O2,020344-69-8,COc1cc(Cc2cnc(N)nc2N)cc(OC)c1,"hansch,c & leo,aj (1985) ",1.57,13,16,4,2,0,0,0,0,0,0,,19,
"n,n-di(propan-2-yl)benzamide",C13H19N1O1,020383-28-2,CC(C)N(C(C)C)C(=O)c1ccccc1,"suryanarayana,mvs et al. (1991) ",2.5,13,19,1,1,0,0,0,0,0,0,,15,
124-benzthiadiazn-1-o2-3-cyclope,C12H14N2O2S1,020434-64-4,C1CC(C2NS(=O)(=O)c3c(cccc3)N=2)CC1,"hansch,c & leo,aj (1985) ",1.83,12,14,2,2,1,0,0,0,0,0,,17,
"3-(phenylmethyl)-4h-benzo[e][1,2,4]thiadiazine 1,1-dioxide",C14H12N2O2S1,020434-66-6,O=[S]1(=O)N=C(Cc2ccccc2)Nc3ccccc13,"hansch & leo, 1985",1.51,14,12,2,2,1,0,0,0,0,0,,19,
"ethylacetoacetate,3,4-dimeo benzal",C15H18O5,020451-62-1,CC(=O)C(=Cc1cc(OC)c(OC)cc1)C(=O)OCC,"hansch,c & leo,aj (1985) ",2.02,15,18,0,5,0,0,0,0,0,0,,20,
"2-butenoic acid, 2-methyl-, 7-(acetyloxy)-6-(chl",C22H27Cl1O8,020501-52-4,CC=C(C)C(=O)OC1CC(O)(CCl)C3C(OC(=O)(C))C=C(C)C3(O)C2OC(=O)C(=C)C12,sangster (1993) ,1.42,22,27,0,8,0,0,0,1,0,0,,31,
"3-buten-2-one,4-(4-bromophenyl)-",C10H9Br1O1,020511-04-0,CC(=O)C=Cc1ccc(Br)cc1,"yamagami,c et al. (1998) ",3.03,10,9,0,1,0,0,0,0,1,0,,12,
2-(2-hydroxyethoxy)ethyl benzoate,C11H14O4,020587-61-5,OCCOCCOC(=O)c1ccccc1,"hansch,c et al. (1995) ",1.16,11,14,0,4,0,0,0,0,0,0,,15,
3-amino-1-butylurea,C5H13N3O1,020605-19-0,CCCCNC(=O)NN,"hansch,c & leo,aj (1985) ",-0.6,5,13,3,1,0,0,0,0,0,0,,9,
n-ethyl-n-propylpropan-1-amine,C8H19N1,020634-92-8,CCCN(CC)CCC,"hansch,c et al. (1995) ",2.68,8,19,1,0,0,0,0,0,0,0,,9,
"methyl n-(2,6-dimethylphenyl)carbamate",C10H13N1O2,not,COC(=O)Nc1c(C)cccc1C,biobyte (1995) ,1.69,10,13,1,2,0,0,0,0,0,0,,13,
4-butylbenzoic acid,C11H14O2,020651-71-2,CCCCc1ccc(cc1)C(O)=O,"hansch,c et al. (1995) ",3.97,11,14,0,2,0,0,0,0,0,0,,13,
"carbamic acid, (2-chlorophenyl)-, methyl ester",C8H8Cl1N1O2,020668-13-7,COC(=O)Nc1ccccc1Cl,"takahashi,k et al. (1988) ",2.16,8,8,1,2,0,0,0,1,0,0,,12,
"n-(2-diethylaminoethyl)-n-(2,6-dimethylphenyl)formamide",C15H24N2O1,020682-52-4,CCN(CC)CCN(C=O)c1c(C)cccc1C,sangster (1993) ,3.21,15,24,2,1,0,0,0,0,0,0,,18,
2-[[2-amino-3-(1h-indol-3-yl)propanoyl]amino]-3-(1h-indol-3-yl)propanoic acid,C22H22N4O3,020696-60-0,NC(Cc1c[nH]c2ccccc12)C(=O)NC(Cc3c[nH]c4ccccc34)C(O)=O,biobyte starlist (2009) ,-0.27,22,22,4,3,0,0,0,0,0,0,,29,
"2-(3,4-dihydroxyphenyl)-3,7-dihydroxychroman-4-one",C15H12O6,020725-03-5,OC1C(Oc2cc(O)ccc2C1=O)c3ccc(O)c(O)c3,"perrissoud,d & testa,b (1986) ",0.87,15,12,0,6,0,0,0,0,0,0,,21,
"pyridazine, 4-methoxy-",C5H6N2O1,020733-11-3,COc1ccnnc1,"yamagami,c et al. (1990) ",-0.31,5,6,2,1,0,0,0,0,0,0,,8,
pyridazin-4-amine,C4H5N3,020744-39-2,Nc1ccnnc1,"yamagami,c et al. (1990) ",-0.53,4,5,3,0,0,0,0,0,0,0,,7,
"3-buten-2-one,4-(3-methoxyphenyl)-",C11H12O2,020766-31-8,CC(=O)C=Cc1cc(OC)ccc1,"yamagami,c et al. (1998) ",2.27,11,12,0,2,0,0,0,0,0,0,,13,
"3-buten-2-one,4-(3-chlorophenyl)-",C10H9Cl1O1,020766-36-3,CC(=O)C=Cc1cccc(Cl)c1,"yamagami,c et al. (1998) ",2.81,10,9,0,1,0,0,0,1,0,0,,12,
"3-buten-2-one,4-(2-chlorophenyl)-",C10H9Cl1O1,020766-37-4,CC(=O)C=Cc1ccccc1Cl,"yamagami,c et al. (1998) ",2.85,10,9,0,1,0,0,0,1,0,0,,12,
"2-(3,5-dimethylphenoxy)-6-(hydroxymethyl)oxane-3,4,5-triol",C14H20O6,020772-21-8,Cc1cc(C)cc(OC2OC(CO)C(O)C(O)C2O)c1,"hansch,c & leo,aj (1985) ",0.26,14,20,0,6,0,0,0,0,0,0,,20,
"glucopyranoside,2-ipr-5-me phenyl",C16H24O6,020772-23-0,CC(C)c1c(OC2OC(CO)C(O)C(O)C2O)cc(C)cc1,"hansch,c & leo,aj (1985) ",1.07,16,24,0,6,0,0,0,0,0,0,,22,
"2-(hydroxymethyl)-6-[3-(trifluoromethyl)phenoxy]oxane-3,4,5-triol",C13H15F3O6,020772-25-2,OCC1OC(Oc2cccc(c2)C(F)(F)F)C(O)C(O)C1O,"hansch,c & leo,aj (1985) ",0.49,13,15,0,6,0,0,3,0,0,0,,22,
1-me-3-(3-cl-4-meo phenyl) urea,C9H11Cl1N2O2,020782-57-4,Clc1c(OC)ccc(NC(=O)NC)c1,"hansch,c et al. (1995) ",1.76,9,11,2,2,0,0,0,1,0,0,,14,