Names,Formula,CAS No,SMILES,Reference,Exp logp,C,H,N,O,S,P,F,Cl,Br,I,,,
"4-pentylbenzene-1,2-diol",C11H16O2,002525-11-3,CCCCCc1ccc(O)c(O)c1,"itokawa,h et al. (1989) ",3.11,11,16,0,2,0,0,0,0,0,0,,13,
methyl 5-bromofuran-2-carboxylate,C6H5Br1O3,002527-99-3,COC(=O)c1oc(Br)cc1,"yamagami,c et al. (1991) ",1.84,6,5,0,3,0,0,0,0,1,0,,10,
dibutyl phenyl phosphate,C14H23O4P1,002528-36-1,CCCCO[P](=O)(OCCCC)Oc1ccccc1,"hansch,c et al. (1995) ",4.27,14,23,0,4,0,1,0,0,0,0,,19,
2-methylphenanthrene,C15H12,002531-84-2,Cc1ccc2c(ccc3ccccc23)c1,"veith,gd et al. (1979) ",4.86,15,12,0,0,0,0,0,0,0,0,,15,
6-bromobicyclo[2.2.1]heptane,C7H11Br1,002534-77-2,BrC1CC2CCC1C2,"lodge,kb (1999) ",3.54,7,11,0,0,0,0,0,0,1,0,,8,
"5-(2-hydroxypropyl)-5-prop-2-enyl-1,3-diazinane-2,4,6-trione",C10H14N2O4,002537-29-3,CC(O)CC1(CC=C)C(=O)NC(=O)NC1=O,"wittekind,hh et al. (1988) ",-0.05,10,14,2,4,0,0,0,0,0,0,,16,
tetrachloroguaiacol,C7H4Cl4O2,002539-17-5,COc1cc(Cl)c(Cl)c(Cl)c1OCl,sangster (1994) ,4.59,7,4,0,2,0,0,0,4,0,0,,13,
"3,4,5-tricl-2,6-meo phenol",C8H7Cl3O3,002539-26-6,c1(OC)c(Cl)c(Cl)c(Cl)c(OC)c1O,"hansch,c et al. (1995) ",3.74,8,7,0,3,0,0,0,3,0,0,,14,
2-dimethoxyphosphinothioylsulfanyl-n-formyl-n-methylacetamide,C6H12N1O4P1S2,002540-82-1,CO[P](=S)(OC)SCC(=O)N(C)C=O,"hansch,c et al. (1995) ",1.48,6,12,1,4,2,1,0,0,0,0,,14,
hex-5-yn-2-one,C6H8O1,002550-28-9,CC(=O)CCC#C,"hansch,c et al. (1995) ",0.58,6,8,0,1,0,0,0,0,0,0,,7,
phenylsulfur pentafluoride,C6H5F5S1,002557-81-5,F[S](F)(F)(F)(F)c1ccccc1,"hansch,c et al. (1995) ",3.36,6,5,0,0,1,0,5,0,0,0,,12,
"5-(2-fluorophenyl)-7-nitro-1,3-dihydro-1,4-benzodiazepin-2-one",C15H10F1N3O3,002558-30-7,[O-][N+](=O)c1ccc2NC(=O)CN=C(c3ccccc3F)c2c1,"hansch,c & leo,aj (1985) ",2.15,15,10,3,3,0,0,1,0,0,0,,22,
"1-methyl-1,3-diazinane-2,4,6-trione",C5H6N2O3,002565-47-1,CN1C(=O)CC(=O)NC1=O,"hansch,c et al. (1995) ",-0.85,5,6,2,3,0,0,0,0,0,0,,10,
"6a-hydroxy-6,9a-dimethyl-3-methylidene-4,5,6,7,8,9b-hexahydro-3ah-azuleno[7,8-d]furan-2,9-dione",C15H20O4,002571-81-5,CC1CCC2C(OC(=O)C2=C)C3(C)C(=O)CCC13O,sangster (1994) ,0.83,15,20,0,4,0,0,0,0,0,0,,19,
2-[(2-amino-3-phenylpropanoyl)amino]-3-phenylpropanoic acid,C18H20N2O3,002577-40-4,NC(Cc1ccccc1)C(=O)NC(Cc2ccccc2)C(O)=O,biobyte starlist (2009) ,-0.85,18,20,2,3,0,0,0,0,0,0,,23,
2-[[2-[(2-amino-3-phenylpropanoyl)amino]-3-phenylpropanoyl]amino]-3-phenylpropanoic acid,C27H29N3O4,002578-81-6,NC(Cc1ccccc1)C(=O)NC(Cc2ccccc2)C(=O)NC(Cc3ccccc3)C(O)=O,biobyte starlist (2009) ,-0.02,27,29,3,4,0,0,0,0,0,0,,34,
3-methyl-4-nitrophenol,C7H7N1O3,002581-34-2,Cc1cc(O)ccc1[N+]([O-])=O,"schwarzenbach,rp et al. (1988) ",2.48,7,7,1,3,0,0,0,0,0,0,,11,
diethoxy-(ethylsulfinylmethylsulfanyl)-sulfanylidenephosphorane,C7H17O3P1S3,002588-03-6,CCO[P](=S)(OCC)SC[S](=O)CC,"hansch,c & leo,aj (1985) ",1.78,7,17,0,3,3,1,0,0,0,0,,14,
diethoxy-(ethylsulfonylmethylsulfanyl)-sulfanylidenephosphorane,C7H17O4P1S3,002588-04-7,CCO[P](=S)(OCC)SC[S](=O)(=O)CC,"bowman,bt & sans,ww (1983a) ",1.99,7,17,0,4,3,1,0,0,0,0,,15,
1-(ethoxy-(ethylsulfinylmethylsulfanyl)phosphoryl)oxyethane,C7H17O4P1S2,002588-05-8,CCO[P](=O)(OCC)SC[S](=O)CC,"hansch,c & leo,aj (1985) ",1.78,7,17,0,4,2,1,0,0,0,0,,14,
1-(ethoxy-(ethylsulfonylmethylsulfanyl)phosphoryl)oxyethane,C7H17O5P1S2,002588-06-9,CCO[P](=O)(OCC)SC[S](=O)(=O)CC,"bowman,bt & sans,ww (1983) ",1.98,7,17,0,5,2,1,0,0,0,0,,15,
3-me-4-clphenyl-n-me carbamate,C9H10Cl1N1O2,002589-65-3,Clc1ccc(OC(=O)NC)cc1C,"hansch,c et al. (1995) ",2.57,9,10,1,2,0,0,0,1,0,0,,13,
etridazole,C5H5Cl3N2O1S1,002593-15-9,ClC(Cl)(Cl)c1nc(OCC)sn1,"tomlin,c (1997) ",3.37,5,5,2,1,1,0,0,3,0,0,,12,
ethyl 2-dimethoxyphosphinothioylsulfanyl-2-phenylacetate,C12H17O4P1S2,002597-03-7,CCOC(=O)C(S[P](=S)(OC)OC)c1ccccc1,"hansch,c et al. (1995) ",3.69,12,17,0,4,2,1,0,0,0,0,,19,
quinolin-8-yl acetate,C11H9N1O2,002598-29-0,CC(=O)Oc1cccc2cccnc12,"hansch,c et al. (1995) ",2.03,11,9,1,2,0,0,0,0,0,0,,14,
1-(diethoxyphosphorylsulfanylmethylsulfanyl)ethane,C7H17O3P1S2,002600-69-3,CCO[P](=O)(OCC)SCSCC,"hansch,c et al. (1995) ",2.07,7,17,0,3,2,1,0,0,0,0,,13,
methyl n-phenylcarbamate,C8H9N1O2,002603-10-3,COC(=O)Nc1ccccc1,"takahashi,k et al. (1988) ",1.75,8,9,1,2,0,0,0,0,0,0,,11,
b-nitro-4-dimethylaminostyrene,C10H12N2O2,002604-08-2,CN(C)c1ccc(C=CN(=O)(=O))cc1,"hansch,c et al. (1995) ",2.67,10,12,2,2,0,0,0,0,0,0,,14,
p-chloroformanilide,C7H6Cl1N1O1,002617-79-0,Clc1ccc(NC=O)cc1,"hansch,c et al. (1995) ",2.04,7,6,1,1,0,0,0,1,0,0,,10,
n-phenylsulfonylbenzenesulfonamide,C12H11N1O4S2,002618-96-4,O=[S](=O)(N[S](=O)(=O)c1ccccc1)c2ccccc2,pomona (1987) ,0.52,12,11,1,4,2,0,0,0,0,0,,19,
n-methyl-4-chlorophenylcarbamate,C8H8Cl1N1O2,002620-53-3,CN(C([O-])=O)c1ccc(Cl)cc1,"hansch,c et al. (1995) ",2.01,8,8,1,2,0,0,0,1,0,0,,12,
"2,5-dichloroacetanilide",C8H7Cl2N1O1,002621-62-7,CC(=O)Nc1cc(Cl)ccc1Cl,"nakagawa,y et al. (1992) ",2.19,8,7,1,1,0,0,0,2,0,0,,12,
n-bis(diethylamino)phosphoryl-n-ethylethanamine,C12H30N3O1P1,002622-07-3,CCN(CC)[P](=O)(N(CC)CC)N(CC)CC,"debord,j & labadie,m (1985) ",2.53,12,30,3,1,0,1,0,0,0,0,,17,
10-[3-(4-hydroxypiperidin-1-yl)propyl]phenothiazine-2-carbonitrile,C21H23N3O1S1,002622-26-6,OC1CCN(CCCN2c3ccccc3Sc4ccc(cc24)C#N)CC1,"hansch,c et al. (1995) ",3.52,21,23,3,1,1,0,0,0,0,0,,26,
(4-acetamidophenyl) acetate,C10H11N1O3,002623-33-8,CC(=O)Nc1ccc(OC(C)=O)cc1,"hansch,c et al. (1995) ",1.05,10,11,1,3,0,0,0,0,0,0,,14,
(2-tert-butylphenyl) n-methylcarbamate,C12H17N1O2,002626-81-5,CNC(=O)Oc1ccccc1C(C)(C)C,"hansch,c et al. (1995) ",2.65,12,17,1,2,0,0,0,0,0,0,,15,
(4-tert-butylphenyl) n-methylcarbamate,C12H17N1O2,002626-83-7,CNC(=O)Oc1ccc(cc1)C(C)(C)C,"hansch,c et al. (1995) ",3.06,12,17,1,2,0,0,0,0,0,0,,15,
n-(4-bromophenyl)-2-hydroxybenzamide,C13H10Br1N1O2,002627-77-2,Oc1ccccc1C(=O)Nc2ccc(Br)cc2,"terada,h et al. (1988) ",4.51,13,10,1,2,0,0,0,0,1,0,,17,
n-methyl-n-phenylbenzenecarbothioamide,C14H13N1S1,002628-58-2,CN(c1ccccc1)C(=S)c2ccccc2,"hansch,c et al. (1995) ",3.12,14,13,1,0,1,0,0,0,0,0,,16,
3-(4-pyridyl)propan-1-ol,C8H11N1O1,002629-72-3,OCCCc1ccncc1,"hansch,c et al. (1995) ",0.58,8,11,1,1,0,0,0,0,0,0,,10,
(3-methyl-5-propan-2-ylphenyl) n-methylcarbamate,C12H17N1O2,002631-37-0,CNC(=O)Oc1cc(C)cc(c1)C(C)C,"hansch,c et al. (1995) ",3.1,12,17,1,2,0,0,0,0,0,0,,15,
(3-dimethylaminophenyl) n-methylcarbamate,C10H14N2O2,002631-39-2,CNC(=O)Oc1cccc(c1)N(C)C,"hansch,c et al. (1995) ",1.43,10,14,2,2,0,0,0,0,0,0,,14,
(2-propan-2-ylphenyl) n-methylcarbamate,C11H15N1O2,002631-40-5,CNC(=O)Oc1ccccc1C(C)C,"hansch,c et al. (1995) ",2.31,11,15,1,2,0,0,0,0,0,0,,14,
4-dimethoxyphosphinothioyloxybenzonitrile,C9H10N1O3P1S1,002636-26-2,CO[P](=S)(OC)Oc1ccc(cc1)C#N,"debruijn,j & hermens,j (1991) ",2.71,9,10,1,3,1,1,0,0,0,0,,15,
"3-(diethoxyphosphinothioylsulfanylmethyl)-1,2,3-benzotriazin-4-one",C12H16N3O3P1S2,002642-71-9,CCO[P](=S)(OCC)SCN1N=Nc2ccccc2C1=O,"hansch,c et al. (1995) ",3.4,12,16,3,3,2,1,0,0,0,0,,21,
chrysen-6-amine,C18H13N1,002642-98-0,Nc1cc2c3ccccc3ccc2c4ccccc14,"hansch,c et al. (1995) ",4.99,18,13,1,0,0,0,0,0,0,0,,19,
14benzodiazepin2one13dihydro7bromo52fluorophenyl,C15H10Br1F1N2O1,not,Brc1ccc2c(C(c3ccccc3F)=NCC(=O)N2)c1,biobyte (1995) ,2.98,15,10,2,1,0,0,1,0,1,0,,20,
"7-fluoro-5-phenyl-1,3-dihydro-1,4-benzodiazepin-2-one",C15H11F1N2O1,002648-00-2,Fc1ccc2NC(=O)CN=C(c3ccccc3)c2c1,"hansch,c et al. (1995) ",2.32,15,11,2,1,0,0,1,0,0,0,,19,
"1,2-di(phenyl)pyrazolidine-3,5-dione",C15H12N2O2,002652-77-9,O=C1CC(=O)N(N1c2ccccc2)c3ccccc3,"hansch,c et al. (1995) ",1.45,15,12,2,2,0,0,0,0,0,0,,19,
"(3,5-dimethylphenyl) n-methylcarbamate",C10H13N1O2,002655-14-3,CNC(=O)Oc1cc(C)cc(C)c1,"hansch,c et al. (1995) ",2.23,10,13,1,2,0,0,0,0,0,0,,13,
4-(4-hydroxyphenyl)sulfanylphenol,C12H10O2S1,002664-63-3,Oc1ccc(Sc2ccc(O)cc2)cc1,"hansch,c et al. (1995) ",3.34,12,10,0,2,1,0,0,0,0,0,,15,
"4,5,6-trichloroguaiacol",C7H5Cl3O2,002668-24-8,COc1c(O)cc(Cl)c(Cl)c1Cl,"xie,tm et al. (1984) ",3.72,7,5,0,2,0,0,0,3,0,0,,12,
diethoxy-(2-methyl-4-methylsulfanylphenoxy)-sulfanylidenephosphorane,C12H19O3P1S2,002670-77-1,CCO[P](=S)(OCC)Oc1ccc(SC)cc1C,"hansch,c et al. (1995) ",4.16,12,19,0,3,2,1,0,0,0,0,,18,
8-azahypoxanthine,C4H3N5O1,002683-90-1,O=C1NC=Nc2nn[nH]c12,"hansch,c et al. (1995) ",-1.97,4,3,5,1,0,0,0,0,0,0,,10,
"(3,4,5-trimethylphenyl) n-methylcarbamate",C11H15N1O2,012407-86-2,CNC(=O)Oc1cc(C)c(C)c(C)c1,"tomlin,c (1997) ",3.4,11,15,1,2,0,0,0,0,0,0,,14,
1-ethylpyrrolidin-2-one,C6H11N1O1,002687-91-4,CCN1CCCC1=O,"kim,ck et al. (1993) ",-0.04,6,11,1,1,0,0,0,0,0,0,,8,
1-dodecylpyrrolidin-2-one,C16H31N1O1,002687-96-9,CCCCCCCCCCCCN1CCCC1=O,"sasaki,h et al. (1988) ",4.2,16,31,1,1,0,0,0,0,0,0,,18,
2-(phenoxy)aniline,C12H11N1O1,002688-84-8,Nc1ccccc1Oc2ccccc2,"hansch,c et al. (1995) ",2.46,12,11,1,1,0,0,0,0,0,0,,14,
2-chlorodiphenyl ether,C12H9Cl1O1,002689-07-8,Clc1ccccc1Oc2ccccc2,"kurz,j & ballschmiter,k (1999) ",4.45,12,9,0,1,0,0,0,1,0,0,,14,
"(3-acetylphenyl) n,n-dimethylcarbamate",C11H13N1O3,002689-47-6,CN(C)C(=O)Oc1cccc(c1)C(C)=O,"hansch,c et al. (1995) ",1.18,11,13,1,3,0,0,0,0,0,0,,15,
"1,3,5,7-tetranitro-1,3,5,7-tetrazocane",C4H8N8O8,002691-41-0,[O-][N+](=O)N1CN(CN(CN(C1)[N+]([O-])=O)[N+]([O-])=O)[N+]([O-])=O,"monteil-rivera,f et al. (2003) ",0.16,4,8,8,8,0,0,0,0,0,0,,20,
fluoranthen-3-amine,C16H11N1,002693-46-1,Nc1ccc2c3ccccc3c4cccc1c24,"debnath,ak et al. (1992) ",4.2,16,11,1,0,0,0,0,0,0,0,,17,
4-propylaniline,C9H13N1,002696-84-6,CCCc1ccc(N)cc1,sangster (1993) ,2.4,9,13,1,0,0,0,0,0,0,0,,10,
2-(phenylmethylidene)propanedinitrile,C10H6N2,002700-22-3,N#CC(=Cc1ccccc1)C#N,"hansch,c et al. (1995) ",2.18,10,6,2,0,0,0,0,0,0,0,,12,
2-pyridin-2-ylethanamine,C7H10N2,002706-56-1,NCCc1ccccn1,"hansch,c et al. (1995) ",0.08,7,10,2,0,0,0,0,0,0,0,,9,
"1-piperazineethanol, 4-[3-[2-(trifluoromethyl)-9",C23H25F3N2O1S1,053772-85-3,OCCN1CCN(CCC=C2c4ccccc4Sc3ccc(C(F)(F)F)cc23)CC1,sangster (1993) ,4.25,23,25,2,1,1,0,3,0,0,0,,30,
9-butylpurin-6-amine,C9H13N5,002715-70-0,CCCCn1cnc2c(N)ncnc12,"hansch,c et al. (1995) ",1.25,9,13,5,0,0,0,0,0,0,0,,14,
methyl 2-acetamidobenzoate,C10H11N1O3,002719-08-6,COC(=O)c1ccccc1NC(C)=O,pomona (1987) ,1.65,10,11,1,3,0,0,0,0,0,0,,14,
n-(4-acetylphenyl)acetamide,C10H11N1O2,002719-21-3,CC(=O)Nc1ccc(cc1)C(C)=O,pomona (1987) ,1.24,10,11,1,2,0,0,0,0,0,0,,13,
"n-(1,3-thiazol-2-yl)acetamide",C5H6N2O1S1,002719-23-5,CC(=O)Nc1sccn1,"hansch,c et al. (1995) ",0.76,5,6,2,1,1,0,0,0,0,0,,9,
dodecan-2-ylbenzene,C18H30,002719-61-1,CCCCCCCCCCC(C)c1ccccc1,"sherblom,pm et al. (1992) ",8.19,18,30,0,0,0,0,0,0,0,0,,18,
dodecan-6-ylbenzene,C18H30,002719-64-4,CCCCCCC(CCCCC)c1ccccc1,"sherblom,pm et al. (1992) ",8.07,18,30,0,0,0,0,0,0,0,0,,18,
dodecan-5-ylbenzene,C18H30,002719-64-4,CCCCCCCC(CCCC)c1ccccc1,"sherblom,pm et al. (1992) ",8.07,18,30,0,0,0,0,0,0,0,0,,18,
dodecan-4-ylbenzene,C18H30,002719-64-4,CCCCCCCCC(CCC)c1ccccc1,"sherblom,pm et al. (1992) ",8.07,18,30,0,0,0,0,0,0,0,0,,18,
3-methyl-1-phenylthiourea,C8H10N2S1,002724-69-8,CNC(=S)Nc1ccccc1,pomona (1987) ,0.85,8,10,2,0,1,0,0,0,0,0,,11,
"n,n-diethyl-2-methylbenzamide",C12H17N1O1,002728-04-3,CCN(CC)C(=O)c1ccccc1C,sangster (1994) ,2.02,12,17,1,1,0,0,0,0,0,0,,14,
"n,n-diethyl-4-methylbenzamide",C12H17N1O1,002728-05-4,CCN(CC)C(=O)c1ccc(C)cc1,"suryanarayana,mvs et al. (1991) ",2.38,12,17,1,1,0,0,0,0,0,0,,14,
"2,2,2-trifluoro-n-methylethanamine",C3H6F3N1,002730-67-8,CNCC(F)(F)F,"hansch,c et al. (1995) ",0.55,3,6,1,0,0,0,3,0,0,0,,7,
3-methyl-1-(phenylmethyl)thiourea,C9H12N2S1,002740-94-5,CNC(=S)NCc1ccccc1,"hansch,c et al. (1995) ",1.35,9,12,2,0,1,0,0,0,0,0,,12,
1-phenyl-3-ethyl thiourea,C9H12N2S1,002741-06-2,CCNC(=S)Nc1ccccc1,"hansch,c et al. (1995) ",1.42,9,12,2,0,1,0,0,0,0,0,,12,
"1,1-dimethyl-3-(phenylmethyl)thiourea",C10H14N2S1,002741-14-2,CN(C)C(=S)NCc1ccccc1,pomona (1987) ,1.59,10,14,2,0,1,0,0,0,0,0,,13,
2-furan-2-ylacetonitrile,C6H5N1O1,002745-25-7,N#CCc1occc1,"hansch,c et al. (1995) ",0.85,6,5,1,1,0,0,0,0,0,0,,8,
1-aminocyclohexane-1-carboxylic acid,C7H13N1O2,002756-85-6,NC1(CCCCC1)C(O)=O,"tsai,rs et al. (1991) ",-1.87,7,13,1,2,0,0,0,0,0,0,,10,
cypromide,C10H9Cl2N1O1,002759-71-9,Clc1ccc(NC(=O)C2CC2)cc1Cl,"hansch,c et al. (1995) ",3.83,10,9,1,1,0,0,0,2,0,0,,14,
"4,5-dichloroveratrole",C8H8Cl2O2,002772-46-5,COc1cc(Cl)c(Cl)cc1OC,"lun,r et al. (1995) ",3.11,8,8,0,2,0,0,0,2,0,0,,12,
2-(diethoxyphosphorylmethyl-(2-hydroxyethyl)amino)ethanol,C9H22N1O5P1,002781-11-5,CCO[P](=O)(CN(CCO)CCO)OCC,hpv data ,-0.72,9,22,1,5,0,1,0,0,0,0,,16,
"1,1,3,3-tetramethylthiourea",C5H12N2S1,002782-91-4,CN(C)C(=S)N(C)C,"govers,h et al. (1986) ",0.49,5,12,2,0,1,0,0,0,0,0,,8,
"5-(4-hydroxyphenyl)-5-phenylimidazolidine-2,4-dione",C15H12N2O3,002784-27-2,Oc1ccc(cc1)C2(NC(=O)NC2=O)c3ccccc3,"hansch,c et al. (1995) ",1.7,15,12,2,3,0,0,0,0,0,0,,20,
"3-methyl-1,3-benzothiazol-2-one",C8H7N1O1S1,002786-62-1,CN1C(=O)Sc2ccccc12,"hansch,c et al. (1995) ",1.98,8,7,1,1,1,0,0,0,0,0,,11,
2-amino-3-[tri(phenyl)methylsulfanyl]propanoic acid,C22H21N1O2S1,002799-07-7,NC(CSC(c1ccccc1)(c2ccccc2)c3ccccc3)C(O)=O,pomona (1987) ,2.06,22,21,1,2,1,0,0,0,0,0,,26,
"1-(2,5-dimethoxyphenyl)propan-2-amine",C11H17N1O2,002801-68-5,COc1ccc(OC)c(CC(C)N)c1,"hansch,c et al. (1995) ",1.72,11,17,1,2,0,0,0,0,0,0,,14,
"hexa-2,4-diyne",C6H6,002809-69-0,CC#CC#CC,"hansch,c et al. (1995) ",2.24,6,6,0,0,0,0,0,0,0,0,,6,
ethyl thiophene-2-carboxylate,C7H8O2S1,002810-04-0,CCOC(=O)c1sccc1,"hansch,c et al. (1995) ",2.33,7,8,0,2,1,0,0,0,0,0,,10,
2-[(4-methylphenyl)methylidene]propanedinitrile,C11H8N2,002826-25-7,Cc1ccc(cc1)C=C(C#N)C#N,"hansch,c et al. (1995) ",2.4,11,8,2,0,0,0,0,0,0,0,,13,
"n2,n2,n6,n6-tetramethyl-1,3,5-triazine-2,4,6-triamine",C7H14N6,002827-47-6,CN(C)c1nc(N)nc(n1)N(C)C,"hansch,c et al. (1995) ",1.2,7,14,6,0,0,0,0,0,0,0,,13,
4-aminobenzamide,C7H8N2O1,002835-68-9,NC(=O)c1ccc(N)cc1,"hansch,c et al. (1995) ",-0.41,7,8,2,1,0,0,0,0,0,0,,10,
(benzoylamino)urea,C8H9N3O2,002845-79-6,NC(=O)NNC(=O)c1ccccc1,"hansch,c et al. (1995) ",-0.5,8,9,3,2,0,0,0,0,0,0,,13,
m-chloroanisole,C7H7Cl1O1,002845-89-8,COc1cccc(Cl)c1,"hansch,c et al. (1995) ",2.98,7,7,0,1,0,0,0,1,0,0,,9,
2-methoxy-3-methylpyrazine,C6H8N2O1,002847-30-5,COc1nccnc1C,"yamagami,c et al. (1991) ",1.24,6,8,2,1,0,0,0,0,0,0,,9,
chlorothiazide-3-amyl,C12H16Cl1N3O4S2,002854-98-0,CCCCCC1NS(=O)(=O)c2c(cc(Cl)c(S(=O)(=O)N)c2)N=1,"hansch,c et al. (1995) ",2.01,12,16,3,4,2,0,0,1,0,0,,22,
3-propylchlorothiazide,C10H12Cl1N3O4S2,002854-99-1,CCCC1NS(=O)(=O)c2c(cc(Cl)c(S(=O)(=O)N)c2)N=1,sangster (1994) ,1.21,10,12,3,4,2,0,0,1,0,0,,20,
3-(3-pyridyl)propan-1-ol,C8H11N1O1,002859-67-8,OCCCc1cccnc1,"hansch,c et al. (1995) ",0.6,8,11,1,1,0,0,0,0,0,0,,10,
3-pyridin-2-ylpropan-1-ol,C8H11N1O1,002859-68-9,OCCCc1ccccn1,"hansch,c et al. (1995) ",0.58,8,11,1,1,0,0,0,0,0,0,,10,
"3,6-bis(phenylmethyl)piperazine-2,5-dione",C18H18N2O2,002862-51-3,O=C1NC(Cc2ccccc2)C(=O)NC1Cc3ccccc3,sangster (1994) ,1.59,18,18,2,2,0,0,0,0,0,0,,22,
"2-ethyl-1,3-dimethylbenzene",C10H14,002870-04-4,CCc1c(C)cccc1C,"sherblom,pm & eganhouse,rp (1988) ",4.28,10,14,0,0,0,0,0,0,0,0,,10,
"1,4-diamino-2-methoxyanthracene-9,10-dione",C15H12N2O3,002872-48-2,COc1cc(N)c2C(=O)c3ccccc3C(=O)c2c1N,"baughman,gl & weber,ej (1991) ",3.5,15,12,2,3,0,0,0,0,0,0,,20,
2-[ethyl-[4-(4-nitrophenyl)diazenylphenyl]amino]ethanol,C16H18N4O3,002872-52-8,CCN(CCO)c1ccc(cc1)N=Nc2ccc(cc2)[N+]([O-])=O,"baughman,gl & weber,ej (1991) ",4.3,16,18,4,3,0,0,0,0,0,0,,23,
"2-methoxycyclohexa-2,5-diene-1,4-dione",C7H6O3,002880-58-2,COC1=CC(=O)C=CC1=O,"huang,jx et al. (1985) ",-0.06,7,6,0,3,0,0,0,0,0,0,,10,
2-methyl-3-methylsulfanylpyrazine,C6H8N2S1,002882-20-4,CSc1nccnc1C,"yamagami,c et al. (1991) ",1.81,6,8,2,0,1,0,0,0,0,0,,9,
2-methoxy-6-methylpyrazine,C6H8N2O1,002882-21-5,COc1cncc(C)n1,"yamagami,c et al. (1991) ",1.29,6,8,2,1,0,0,0,0,0,0,,9,
"1,4-benzodiazpin-2-one,5(2fph)7cl",C15H10Cl1F1N2O1,002886-65-9,Clc1ccc2c(C(c3ccccc3F)=NCC(=O)N2)c1,"hansch,c & leo,aj (1985) ",2.7,15,10,2,1,0,0,1,1,0,0,,20,
"7-bromo-5-phenyl-1,3-dihydro-1,4-benzodiazepin-2-one",C15H11Br1N2O1,002894-61-3,Brc1ccc2NC(=O)CN=C(c3ccccc3)c2c1,sangster (1993) ,3.11,15,11,2,1,0,0,0,0,1,0,,19,
"1,4-benzdiazepin-2-one-5(2-clph)-7-cl",C15H10Cl2N2O1,002894-67-9,Clc1ccc2c(C(c3ccccc3Cl)=NCC(=O)N2)c1,"hansch,c & leo,aj (1985) ",3.15,15,10,2,1,0,0,0,2,0,0,,20,
"1-hydroxy-2,2,6,6-tetramethylpiperidin-4-one",C9H17N1O2,002896-70-0,CC1(C)CC(=O)CC(C)(C)N1O,sangster (1993) ,0.12,9,17,1,2,0,0,0,0,0,0,,12,
"5-phenyl-1,3-dihydro-1,4-benzodiazepin-2-one",C15H12N2O1,002898-08-0,O=C1CN=C(c2ccccc2)c3ccccc3N1,"hansch,c & leo,aj (1985) ",2.18,15,12,2,1,0,0,0,0,0,0,,18,
medazepam,C16H15Cl1N2,002898-12-6,CN1CCN=C(c2ccccc2)c3cc(Cl)ccc13,"hansch,c et al. (1995) ",4.41,16,15,2,0,0,0,0,1,0,0,,19,
"135-triazine,n-etoh,n'-ipr,4-cl-",C8H14Cl1N5O1,002904-53-2,Clc1nc(NCCO)nc(NC(C)C)n1,"balke,ne & price,tp (1988) ",0.78,8,14,5,1,0,0,0,1,0,0,,15,
"benzoic acid, 3-chloro-, methyl ester",C8H7Cl1O2,002905-65-9,COC(=O)c1cccc(Cl)c1,"sotomatsu,t et al. (1993) ",2.85,8,7,0,2,0,0,0,1,0,0,,11,
"2,2-dimethyl-1,3-dioxolane",C5H10O2,002916-31-6,CC1(C)OCCO1,pomona (1987) ,0.46,5,10,0,2,0,0,0,0,0,0,,7,
"1,4-bis(oxiran-2-ylmethyl)piperazine",C10H18N2O2,002917-98-8,C1CN(CCN1CC2CO2)CC3CO3,"hansch,c et al. (1995) ",-0.84,10,18,2,2,0,0,0,0,0,0,,14,
chlorpyrifos,C9H11Cl3N1O3P1S1,002921-88-2,CCO[P](=S)(OCC)Oc1nc(Cl)c(Cl)cc1Cl,sangster (1994) ,4.96,9,11,1,3,1,1,0,3,0,0,,18,
2-amino-3-(4-nitrophenyl)propanoic acid,C9H10N2O4,002922-40-9,NC(Cc1ccc(cc1)[N+]([O-])=O)C(O)=O,"hansch,c et al. (1995) ",-1.25,9,10,2,4,0,0,0,0,0,0,,15,
"n,n-bis(2,2,2-trifluoroethyl)aniline",C10H9F6N1,002924-27-8,FC(F)(F)CN(CC(F)(F)F)c1ccccc1,pomona (1987) ,3.69,10,9,1,0,0,0,6,0,0,0,,17,
1-(3-methylphenoxy)-3-(propan-2-ylamino)propan-2-ol,C13H21N1O2,002933-44-0,CC(C)NCC(O)COc1cccc(C)c1,"hansch,c et al. (1995) ",1.93,13,21,1,2,0,0,0,0,0,0,,16,
2-[(2-methoxyphenyl)amino]ethanol,C9H13N1O2,002933-75-7,COc1ccccc1NCCO,"hansch,c et al. (1995) ",1.5,9,13,1,2,0,0,0,0,0,0,,12,
2-(4-methylphenyl)acetonitrile,C9H9N1,002947-61-7,Cc1ccc(CC#N)cc1,sangster (1994) ,1.67,9,9,1,0,0,0,0,0,0,0,,10,
"1,2,3,4-tetrahydronaphthalen-2-amine",C10H13N1,002954-50-9,NC1CCc2ccccc2C1,sangster (1993) ,2.08,10,13,1,0,0,0,0,0,0,0,,11,
prazepam,C19H17Cl1N2O1,002955-38-6,Clc1ccc2N(CC3CC3)C(=O)CN=C(c4ccccc4)c2c1,"hansch,c et al. (1995) ",3.73,19,17,2,1,0,0,0,1,0,0,,23,
4-pentylpyridine,C10H15N1,002961-50-4,CCCCCc1ccncc1,"hansch,c et al. (1995) ",3.75,10,15,1,0,0,0,0,0,0,0,,11,
"2,2-diphenyl-1,1,1-tricl ethane",C14H11Cl3,002971-22-4,c1(C(C(Cl)(Cl)Cl)c2ccccc2)ccccc1,"hansch,c et al. (1995) ",4.87,14,11,0,0,0,0,0,3,0,0,,17,
quinoline-4-carbonitrile,C10H6N2,002973-27-5,N#Cc1ccnc2ccccc12,"hansch,c et al. (1995) ",1.98,10,6,2,0,0,0,0,0,0,0,,12,
3-bromo-4-hydroxybenzaldehyde,C7H5Br1O2,002973-78-6,Oc1ccc(C=O)cc1Br,"jin,lj et al. (1998) ",1.83,7,5,0,2,0,0,0,0,1,0,,10,
"biphenyl, 3,4'-dichloro-",C12H8Cl2,002974-90-5,Clc1ccc(cc1)c2cccc(Cl)c2,sangster (1993) ,5.15,12,8,0,0,0,0,0,2,0,0,,14,
"3,4-dichlorobiphenyl",C12H8Cl2,002974-92-7,Clc1ccc(cc1Cl)c2ccccc2,sangster (1993) ,5.29,12,8,0,0,0,0,0,2,0,0,,14,
1-methylsulfonyl-3-nitrobenzene,C7H7N1O4S1,002976-32-1,C[S](=O)(=O)c1cccc(c1)[N+]([O-])=O,"hansch,c et al. (1995) ",0.5,7,7,1,4,1,0,0,0,0,0,,13,
2-naphthalen-1-yloxyacetic acid,C12H10O3,002976-75-2,OC(=O)COc1cccc2ccccc12,"chamberlain,k et al. (1986) ",2.6,12,10,0,3,0,0,0,0,0,0,,15,
2-methylsulfanylaniline,C7H9N1S1,002987-53-3,CSc1ccccc1N,"hansch,c et al. (1995) ",1.2,7,9,1,0,1,0,0,0,0,0,,9,
methyl 2-(2-methylphenoxy)acetate,C10H12O3,002989-17-5,COC(=O)COc1ccccc1C,"hansch,c et al. (1995) ",2.08,10,12,0,3,0,0,0,0,0,0,,13,
(3-bromophenyl)urea,C7H7Br1N2O1,002989-98-2,NC(=O)Nc1cccc(Br)c1,"hansch,c et al. (1995) ",2.08,7,7,2,1,0,0,0,0,1,0,,11,
"3,3-dimethyl-1,1-di(phenyl)urea",C15H16N2O1,002990-01-4,CN(C)C(=O)N(c1ccccc1)c2ccccc2,"hansch,c et al. (1995) ",2.8,15,16,2,1,0,0,0,0,0,0,,18,
"acetamide, n-(4-chlorophenyl)-2-phenyl-",C14H12Cl1N1O1,002990-06-9,Clc1ccc(NC(=O)Cc2ccccc2)cc1,"yamagami,c et al. (1984) ",3.54,14,12,1,1,0,0,0,1,0,0,,17,
n-(pyridin-3-ylmethyl)ethanamine,C8H12N2,003000-75-7,CCNCc1cccnc1,"hansch,c et al. (1995) ",0.76,8,12,2,0,0,0,0,0,0,0,,10,
"2,3,4,6,7,8-hexahydropyrrolo[1,2-a]pyrimidine",C7H12N2,003001-72-7,C1CN=C2CCCN2C1,biobyte starlist (2009) ,-0.17,7,12,2,0,0,0,0,0,0,0,,9,