Names,Formula,CAS No,SMILES,Reference,Exp logp,C,H,N,O,S,P,F,Cl,Br,I,,,
4-hydroxy-3-methoxybenzoic acid,C8H8O4,000121-34-6,COc1cc(ccc1O)C(O)=O,"hansch,c et al. (1995) ",1.43,8,8,0,4,0,0,0,0,0,0,,12,
"n,n-diethylethanamine",C6H15N1,000121-44-8,CCN(CC)CC,"hansch,c et al. (1995) ",1.45,6,15,1,0,0,0,0,0,0,0,,7,
"bicyclo[2.2.1]hepta-2,5-diene",C7H8,000121-46-0,C1C2C=CC1C=C2,"lodge,kb (1999) ",2.67,7,8,0,0,0,0,0,0,0,0,,7,
"benzenamine, 2-chloro-5-(trifluoromethyl)-",C7H5Cl1F3N1,000121-50-6,Nc1cc(ccc1Cl)C(F)(F)F,"hansch,c et al. (1995) ",3.06,7,5,1,0,0,0,3,1,0,0,,12,
3-nitrobenzenesulfonamide,C6H6N2O4S1,000121-52-8,N[S](=O)(=O)c1cccc(c1)[N+]([O-])=O,"hansch,c et al. (1995) ",0.55,6,6,2,4,1,0,0,0,0,0,,13,
4-aminobenzenesulfonic acid,C6H7N1O3S1,000121-57-3,Nc1ccc(cc1)[S](O)(=O)=O,"okamoto,h et al. (1991) ",-2.16,6,7,1,3,1,0,0,0,0,0,,11,
n-(4-sulfamoylphenyl)acetamide,C8H10N2O3S1,000121-61-9,CC(=O)Nc1ccc(cc1)[S](N)(=O)=O,"carotti,a et al. (1989) ",-0.04,8,10,2,3,1,0,0,0,0,0,,14,
"5-nitro-1,3-thiazol-2-amine",C3H3N3O2S1,000121-66-4,Nc1sc(cn1)[N+]([O-])=O,"hansch,c et al. (1995) ",0.83,3,3,3,2,1,0,0,0,0,0,,9,
"n,n-dimethylaniline",C8H11N1,000121-69-7,CN(C)c1ccccc1,"hansch,c et al. (1995) ",2.31,8,11,1,0,0,0,0,0,0,0,,9,
1-(3-hydroxyphenyl)ethanone,C8H8O2,000121-71-1,CC(=O)c1cccc(O)c1,"hansch,c et al. (1995) ",1.39,8,8,0,2,0,0,0,0,0,0,,10,
"n,n,3-trimethylaniline",C9H13N1,000121-72-2,CN(C)c1cccc(C)c1,"hansch,c et al. (1995) ",2.8,9,13,1,0,0,0,0,0,0,0,,10,
3-chloro-nitrobenzene,C6H4Cl1N1O2,000121-73-3,[O-][N+](=O)c1cccc(Cl)c1,"hansch,c et al. (1995) ",2.46,6,4,1,2,0,0,0,1,0,0,,10,
diethyl 2-dimethoxyphosphinothioylsulfanylbutanedioate,C10H19O6P1S2,000121-75-5,CCOC(=O)CC(S[P](=S)(OC)OC)C(=O)OCC,"hansch,c et al. (1995) ",2.36,10,19,0,6,2,1,0,0,0,0,,19,
"propyl 3,4,5-trihydroxybenzoate",C10H12O5,000121-79-9,CCCOC(=O)c1cc(O)c(O)c(O)c1,"hansch,c et al. (1995) ",1.8,10,12,0,5,0,0,0,0,0,0,,15,
"3,5-dinitrobenzamide",C7H5N3O5,000121-81-3,NC(=O)c1cc(cc(c1)[N+]([O-])=O)[N+]([O-])=O,"hansch,c et al. (1995) ",0.83,7,5,3,5,0,0,0,0,0,0,,15,
"1,3,5-trinitro-1,3,5-triazinane",C3H6N6O6,000121-82-4,[O-][N+](=O)N1CN(CN(C1)[N+]([O-])=O)[N+]([O-])=O,sangster (1993) ,0.87,3,6,6,6,0,0,0,0,0,0,,15,
2-chloro-4-nitroaniline,C6H5Cl1N2O2,000121-87-9,Nc1ccc(cc1Cl)[N+]([O-])=O,"wu,c et al. (2002) ",2.14,6,5,2,2,0,0,0,1,0,0,,11,
1-(3-nitrophenyl)ethanone,C8H7N1O3,000121-89-1,CC(=O)c1cccc(c1)[N+]([O-])=O,"hansch,c et al. (1995) ",1.42,8,7,1,3,0,0,0,0,0,0,,12,
"benzene-1,3-dicarboxylic acid",C8H6O4,000121-91-5,OC(=O)c1cccc(c1)C(O)=O,"hansch,c et al. (1995) ",1.66,8,6,0,4,0,0,0,0,0,0,,12,
3-nitrobenzoic acid,C7H5N1O4,000121-92-6,OC(=O)c1cccc(c1)[N+]([O-])=O,"hansch,c et al. (1995) ",1.83,7,5,1,4,0,0,0,0,0,0,,12,
methyl 4-methoxybenzoate,C9H10O3,000121-98-2,COC(=O)c1ccc(OC)cc1,"hansch,c et al. (1995) ",2.27,9,10,0,3,0,0,0,0,0,0,,12,
1-(4-methylphenyl)ethanone,C9H10O1,000122-00-9,CC(=O)c1ccc(C)cc1,"hansch,c et al. (1995) ",2.1,9,10,0,1,0,0,0,0,0,0,,10,
2-methyl-1-phenylpropan-2-amine,C10H15N1,000122-09-8,CC(C)(N)Cc1ccccc1,"hansch,c et al. (1995) ",1.9,10,15,1,0,0,0,0,0,0,0,,11,
"4-amino-n-(2,6-dimethoxypyrimidin-4-yl)benzenesulfonamide",C12H14N4O4S1,000122-11-2,COc1cc(N[S](=O)(=O)c2ccc(N)cc2)nc(OC)n1,"hansch,c et al. (1995) ",1.63,12,14,4,4,1,0,0,0,0,0,,21,
dimethoxy-(3-methyl-4-nitrophenoxy)-sulfanylidenephosphorane,C9H12N1O5P1S1,000122-14-5,CO[P](=S)(OC)Oc1ccc(c(C)c1)[N+]([O-])=O,"hansch,c et al. (1995) ",3.3,9,12,1,5,1,1,0,0,0,0,,17,
n-(3-nitrophenyl)acetamide,C8H8N2O3,000122-28-1,CC(=O)Nc1cccc(c1)[N+]([O-])=O,"nakagawa,y et al. (1992) ",1.47,8,8,2,3,0,0,0,0,0,0,,13,
simazine,C7H12Cl1N5,000122-34-9,CCNc1nc(Cl)nc(NCC)n1,"hansch,c et al. (1995) ",2.18,7,12,5,0,0,0,0,1,0,0,,13,
4-(phenylamino)phenol,C12H11N1O1,000122-37-2,Oc1ccc(Nc2ccccc2)cc1,"hansch,c et al. (1995) ",2.82,12,11,1,1,0,0,0,0,0,0,,14,
n-phenylaniline,C12H11N1,000122-39-4,N(c1ccccc1)c2ccccc2,"hansch,c et al. (1995) ",3.5,12,11,1,0,0,0,0,0,0,0,,13,
propan-2-yl n-phenylcarbamate,C10H13N1O2,000122-42-9,CC(C)OC(=O)Nc1ccccc1,"hansch,c et al. (1995) ",2.6,10,13,1,2,0,0,0,0,0,0,,13,
(3-methylphenyl) acetate,C9H10O2,000122-46-3,CC(=O)Oc1cccc(C)c1,"hansch,c et al. (1995) ",2.09,9,10,0,2,0,0,0,0,0,0,,11,
diethoxymethoxyethane,C7H16O3,000122-51-0,CCOC(OCC)OCC,"hansch,c et al. (1995) ",1.2,7,16,0,3,0,0,0,0,0,0,,10,
methyl styryl ketone,C10H10O1,000122-57-6,CC(=O)C=Cc1ccccc1,"hansch,c et al. (1995) ",2.07,10,10,0,1,0,0,0,0,0,0,,11,
2-(phenoxy)acetic acid,C8H8O3,000122-59-8,OC(=O)COc1ccccc1,"hansch,c et al. (1995) ",1.34,8,8,0,3,0,0,0,0,0,0,,11,
"1,2-di(phenyl)hydrazine",C12H12N2,000122-66-7,N(Nc1ccccc1)c2ccccc2,"hansch,c et al. (1995) ",2.94,12,12,2,0,0,0,0,0,0,0,,14,
3-phenylprop-2-enyl cinnamate,C18H16O2,000122-69-0,O=C(OCC=Cc1ccccc1)C=Cc2ccccc2,"hansch,c et al. (1995) ",4.45,18,16,0,2,0,0,0,0,0,0,,20,
2-phenylacetaldehyde,C8H8O1,000122-78-1,O=CCc1ccccc1,"hansch,c et al. (1995) ",1.78,8,8,0,1,0,0,0,0,0,0,,9,
phenyl acetate,C8H8O2,000122-79-2,CC(=O)Oc1ccccc1,"hansch,c et al. (1995) ",1.49,8,8,0,2,0,0,0,0,0,0,,10,
n-(4-aminophenyl)acetamide,C8H10N2O1,000122-80-5,CC(=O)Nc1ccc(N)cc1,"hansch,c et al. (1995) ",0.08,8,10,2,1,0,0,0,0,0,0,,11,
n-(4-formylphenyl)acetamide,C9H9N1O2,000122-85-0,CC(=O)Nc1ccc(C=O)cc1,"hansch,c et al. (1995) ",1.25,9,9,1,2,0,0,0,0,0,0,,12,
p-chlorophenoxyacetic acid,C8H7Cl1O3,000122-88-3,OC(=O)COc1ccc(Cl)cc1,"hansch,c et al. (1995) ",2.25,8,7,0,3,0,0,0,1,0,0,,12,
4-butoxyphenol,C10H14O2,000122-94-1,CCCCOc1ccc(O)cc1,"hansch,c et al. (1995) ",2.9,10,14,0,2,0,0,0,0,0,0,,12,
3-phenylpropan-1-ol,C9H12O1,000122-97-4,OCCCc1ccccc1,"hansch,c et al. (1995) ",1.88,9,12,0,1,0,0,0,0,0,0,,10,
2-(phenylamino)ethanol,C8H11N1O1,000122-98-5,OCCNc1ccccc1,"hansch,c et al. (1995) ",0.82,8,11,1,1,0,0,0,0,0,0,,10,
2-(phenoxy)ethanol,C8H10O2,000122-99-6,OCCOc1ccccc1,"hansch,c et al. (1995) ",1.16,8,10,0,2,0,0,0,0,0,0,,10,
dodecylbenzene,C18H30,000123-01-3,CCCCCCCCCCCCc1ccccc1,"sherblom,pm et al. (1992) ",8.65,18,30,0,0,0,0,0,0,0,0,,18,
tridecylbenzene,C19H32,000123-02-4,CCCCCCCCCCCCCc1ccccc1,"sherblom,pm et al. (1992) ",9.36,19,32,0,0,0,0,0,0,0,0,,19,
4-ethylphenol,C8H10O1,000123-07-9,CCc1ccc(O)cc1,"hansch,c et al. (1995) ",2.58,8,10,0,1,0,0,0,0,0,0,,9,
4-hydroxybenzaldehyde,C7H6O2,000123-08-0,Oc1ccc(C=O)cc1,"hansch,c et al. (1995) ",1.35,7,6,0,2,0,0,0,0,0,0,,9,
4-methoxybenzaldehyde,C8H8O2,000123-11-5,COc1ccc(C=O)cc1,"hansch,c et al. (1995) ",1.76,8,8,0,2,0,0,0,0,0,0,,10,
diethyl butanedioate,C8H14O4,000123-25-1,CCOC(=O)CCC(=O)OCC,"catz,p & friend,d (1989) ",1.2,8,14,0,4,0,0,0,0,0,0,,12,
4-aminophenol,C6H7N1O1,000123-30-8,Nc1ccc(O)cc1,"hansch,c et al. (1995) ",0.04,6,7,1,1,0,0,0,0,0,0,,8,
"benzene-1,4-diol",C6H6O2,000123-31-9,Oc1ccc(O)cc1,"hansch,c et al. (1995) ",0.59,6,6,0,2,0,0,0,0,0,0,,8,
"2,5-dimethylpyrazine",C6H8N2,000123-32-0,Cc1cnc(C)cn1,"hansch,c et al. (1995) ",0.63,6,8,2,0,0,0,0,0,0,0,,8,
"1,2-dihydropyridazine-3,6-dione",C4H4N2O2,000123-33-1,O=C1NNC(=O)C=C1,"hansch,c et al. (1995) ",-0.84,4,4,2,2,0,0,0,0,0,0,,8,
"7-methyl-3-methylideneocta-1,6-diene",C10H16,000123-35-3,CC(C)=CCCC(=C)C=C,chemicals inspection and testing institu (1992) ,4.17,10,16,0,0,0,0,0,0,0,0,,10,
propanal,C3H6O1,000123-38-6,CCC=O,"hansch,c et al. (1995) ",0.59,3,6,0,1,0,0,0,0,0,0,,4,
3-methylbutan-1-ol,C5H12O1,000123-51-3,CC(C)CCO,"hansch,c et al. (1995) ",1.16,5,12,0,1,0,0,0,0,0,0,,6,
"pentane-2,4-dione",C5H8O2,000123-54-6,CC(=O)CC(C)=O,"hansch,c et al. (1995) ",0.4,5,8,0,2,0,0,0,0,0,0,,7,
"2,4,6-trimethyl-1,3,5-trioxane",C6H12O3,000123-63-7,CC1OC(C)OC(C)O1,"hansch,c et al. (1995) ",0.67,6,12,0,3,0,0,0,0,0,0,,9,
butanal,C4H8O1,000123-72-8,CCCC=O,"hansch,c et al. (1995) ",0.88,4,8,0,1,0,0,0,0,0,0,,5,
pyrrolidine,C4H9N1,000123-75-1,C1CCNC1,"hansch,c et al. (1995) ",0.46,4,9,1,0,0,0,0,0,0,0,,5,
4-oxopentanoic acid,C5H8O3,000123-76-2,CC(=O)CCC(O)=O,"hansch,c et al. (1995) ",-0.49,5,8,0,3,0,0,0,0,0,0,,8,
(z)-carbamoyliminourea,C2H4N4O2,000123-77-3,NC(=O)N=NC(N)=O,"verschueren,k (1996) ",-1.7,2,4,4,2,0,0,0,0,0,0,,8,
heptan-2-amine,C7H17N1,000123-82-0,CCCCCC(C)N,sangster (1994) ,2.4,7,17,1,0,0,0,0,0,0,0,,8,
butyl acetate,C6H12O2,000123-86-4,CCCCOC(C)=O,"hansch,c et al. (1995) ",1.78,6,12,0,2,0,0,0,0,0,0,,8,
"1,4-dioxane",C4H8O2,000123-91-1,C1COCCO1,"hansch,c et al. (1995) ",-0.27,4,8,0,2,0,0,0,0,0,0,,6,
3-methylbutyl acetate,C7H14O2,000123-92-2,CC(C)CCOC(C)=O,daylight (2003) ,2.25,7,14,0,2,0,0,0,0,0,0,,9,
octan-2-ol,C8H18O1,000123-96-6,CCCCCCC(C)O,"funasaki,n et al. (1986) ",2.9,8,18,0,1,0,0,0,0,0,0,,9,
nonanedioic acid,C9H16O4,000123-99-9,OC(=O)CCCCCCCC(O)=O,"hansch,c et al. (1995) ",1.57,9,16,0,4,0,0,0,0,0,0,,13,
n-prop-2-enylprop-2-en-1-amine,C6H11N1,000124-02-7,C=CCNCC=C,"hansch,c et al. (1995) ",1.11,6,11,1,0,0,0,0,0,0,0,,7,
hexanedioic acid,C6H10O4,000124-04-9,OC(=O)CCCCC(O)=O,"hansch,c et al. (1995) ",0.08,6,10,0,4,0,0,0,0,0,0,,10,
octanoic acid,C8H16O2,000124-07-2,CCCCCCCC(O)=O,"hansch,c et al. (1995) ",3.05,8,16,0,2,0,0,0,0,0,0,,10,
methyl tetradecanoate,C15H30O2,000124-10-7,CCCCCCCCCCCCCC(=O)OC,"krop,hb et al. (1997) ",6.41,15,30,0,2,0,0,0,0,0,0,,17,
non-1-ene,C9H18,000124-11-8,CCCCCCCC=C,"hansch,c et al. (1995) ",5.15,9,18,0,0,0,0,0,0,0,0,,9,
octanenitrile,C8H15N1,000124-12-9,CCCCCCCC#N,"tanii,h & hashimoto,k (1984) ",2.75,8,15,1,0,0,0,0,0,0,0,,9,
decane,C10H22,000124-18-5,CCCCCCCCCC,"coates,m et al. (1985) ",5.01,10,22,0,0,0,0,0,0,0,0,,10,
carbon dioxide,C1O2,000124-38-9,O=C=O,"hansch,c et al. (1995) ",0.83,1,0,0,2,0,0,0,0,0,0,,3,
n-methylmethanamine,C2H7N1,000124-40-3,CNC,"hansch,c et al. (1995) ",-0.38,2,7,1,0,0,0,0,0,0,0,,3,
dibromochloromethane,C1H1Br2Cl1,000124-48-1,ClC(Br)Br,sangster (1994) ,2.16,1,1,0,0,0,0,0,1,2,0,,4,
"1,7,7-trimethylbicyclo[2.2.1]heptan-6-ol",C10H18O1,000507-70-0,CC1(C)C2CCC1(C)C(O)C2,chemicals inspection and testing institu (1992) ,2.69,10,18,0,1,0,0,0,0,0,0,,11,
"9-fluoro-11,16,17-trihydroxy-17-(2-hydroxyacetyl)-10,13-dimethyl-6,7,8,11,12,14,15,16-octahydrocyclopenta[a]phenanthren-3-one",C21H27F1O6,000124-94-7,CC12CC(O)C3(F)C(CCC4=CC(=O)C=CC34C)C1CC(O)C2(O)C(=O)CO,"hansch,c et al. (1995) ",1.16,21,27,0,6,0,0,1,0,0,0,,28,
"(1,7,7-trimethyl-6-bicyclo[2.2.1]heptanyl) acetate",C12H20O2,000125-12-2,CC(=O)OC1CC2CCC1(C)C2(C)C,"simonich,sl et al. (2000) ",4.3,12,20,0,2,0,0,0,0,0,0,,14,
"5-ethyl-5-phenyl-1,3-diazinane-4,6-dione",C12H14N2O2,000125-33-7,CCC1(C(=O)NCNC1=O)c2ccccc2,"hansch,c et al. (1995) ",0.91,12,14,2,2,0,0,0,0,0,0,,16,
"5-butan-2-yl-5-ethyl-1,3-diazinane-2,4,6-trione",C10H16N2O3,000125-40-6,CCC(C)C1(CC)C(=O)NC(=O)NC1=O,"wong,o & mckeown,rh (1988) ",1.65,10,16,2,3,0,0,0,0,0,0,,15,
"2,6-diacetyl-7,9-dihydroxy-8,9b-dimethyldibenzofuran-1,3-dione",C18H16O7,000125-46-2,CC(=O)C1C(=O)C=C2Oc3c(C(C)=O)c(O)c(C)c(O)c3C2(C)C1=O,sangster (1993) ,2.88,18,16,0,7,0,0,0,0,0,0,,25,
"5-(2-bromoprop-2-enyl)-1-methyl-5-propan-2-yl-1,3-diazinane-2,4,6-trione",C11H15Br1N2O3,000125-55-3,CC(C)C1(CC(Br)=C)C(=O)NC(=O)N(C)C1=O,"hansch,c et al. (1995) ",2.11,11,15,2,3,0,0,0,0,1,0,,17,
"3,3-diethyl-5-methylpiperidine-2,4-dione",C10H17N1O2,000125-64-4,CCC1(CC)C(=O)NCC(C)C1=O,sangster (1994) ,0.78,10,17,1,2,0,0,0,0,0,0,,13,
griseofulvin,C17H17Cl1O6,000126-07-8,COC1CC(=O)C[C@@H](C)[C@]12Oc3c(Cl)c(OC)cc(OC)c3C2=O,"hansch,c et al. (1995) ",2.18,17,17,0,6,0,0,0,1,0,0,,24,
"thiolane 1,1-dioxide",C4H8O2S1,000126-33-0,O=[S]1(=O)CCCC1,"hansch,c et al. (1995) ",-0.77,4,8,0,2,1,0,0,0,0,0,,7,
"tris(2,3-dibromopropoxy)-hydroxyphosphanium",C9H15Br6O4P1,000126-72-7,O[P+](OCC(Br)CBr)(OCC(Br)CBr)OCC(Br)CBr,sangster (1994); average ,4.29,9,15,0,4,0,1,0,0,6,0,,20,
tributoxy-hydroxyphosphanium,C12H27O4P1,000126-73-8,CCCCO[P+](O)(OCCCC)OCCCC,"hansch,c et al. (1995) ",4,12,27,0,4,0,1,0,0,0,0,,17,
2-methylprop-2-enenitrile,C4H5N1,000126-98-7,CC(=C)C#N,"tanii,h & hashimoto,k (1984) ",0.68,4,5,1,0,0,0,0,0,0,0,,5,
n-propan-2-ylidenehydroxylamine,C3H7N1O1,000127-06-0,CC(C)=NO,pomona (1987) ,0.12,3,7,1,1,0,0,0,0,0,0,,5,
hydroxyurea,C1H4N2O2,000127-07-1,NC(=O)NO,"hansch,c et al. (1995) ",-1.8,1,4,2,2,0,0,0,0,0,0,,5,
tetrachloroethene,C2Cl4,000127-18-4,ClC(Cl)=C(Cl)Cl,"hansch,c et al. (1995) ",3.4,2,0,0,0,0,0,0,4,0,0,,6,
"n,n-dimethylacetamide",C4H9N1O1,000127-19-5,CN(C)C(C)=O,"hansch,c et al. (1995) ",-0.77,4,9,1,1,0,0,0,0,0,0,,6,
"9-fluoro-11,17-dihydroxy-17-(2-hydroxyacetyl)-10,13-dimethyl-1,2,6,7,8,11,12,14,15,16-decahydrocyclopenta[a]phenanthren-3-one",C21H29F1O5,000127-31-1,CC12CC(O)C3(F)C(CCC4=CC(=O)CCC34C)C1CCC2(O)C(=O)CO,"hansch,c et al. (1995) ",1.67,21,29,0,5,0,0,1,0,0,0,,27,
alpha-ionone,C13H20O1,000127-41-3,CC(=O)/C=C/C1C(=CCCC1(C)C)C,"griffin,s et al. (1999) ",3.85,13,20,0,1,0,0,0,0,0,0,,14,
phenylsulfonylbenzene,C12H10O2S1,000127-63-9,O=[S](=O)(c1ccccc1)c2ccccc2,"hansch,c et al. (1995) ",2.4,12,10,0,2,1,0,0,0,0,0,,15,
"4-amino-n-(3,4-dimethyl-1,2-oxazol-5-yl)benzenesulfonamide",C11H13N3O3S1,000127-69-5,Cc1noc(N[S](=O)(=O)c2ccc(N)cc2)c1C,"hansch,c et al. (1995) ",1.01,11,13,3,3,1,0,0,0,0,0,,18,
4-amino-n-phenylbenzenesulfonamide,C12H12N2O2S1,000127-77-5,Nc1ccc(cc1)[S](=O)(=O)Nc2ccccc2,"hansch,c et al. (1995) ",1.55,12,12,2,2,1,0,0,0,0,0,,17,
4-amino-n-(4-methylpyrimidin-2-yl)benzenesulfonamide,C11H12N4O2S1,000127-79-7,Cc1ccnc(N[S](=O)(=O)c2ccc(N)cc2)n1,"hansch,c et al. (1995) ",0.14,11,12,4,2,1,0,0,0,0,0,,18,
"7,7-dimethyl-4-methylidenebicyclo[3.1.1]heptane",C10H16,000127-91-3,CC1(C)C2CCC(=C)C1C2,"griffin,s et al. (1999) ",4.16,10,16,0,0,0,0,0,0,0,0,,10,
"4-(3,7-dihydroxy-10,13-dimethyl-2,3,4,5,6,7,8,9,11,12,14,15,16,17-tetradecahydro-1h-cyclopenta[a]phenanthren-17-yl)pentanoic acid",C24H40O4,000474-25-9,CC(CCC(O)=O)C1CCC2C3C(O)CC4CC(O)CCC4(C)C3CCC12C,sangster (1993) ,4.15,24,40,0,4,0,0,0,0,0,0,,28,
"2,6-ditert-butyl-4-methylphenol",C15H24O1,000128-37-0,Cc1cc(c(O)c(c1)C(C)(C)C)C(C)(C)C,tscats ,5.1,15,24,0,1,0,0,0,0,0,0,,16,
"2,6-ditert-butylphenol",C14H22O1,000128-39-2,CC(C)(C)c1cccc(c1O)C(C)(C)C,"hansch,c et al. (1995) ",4.92,14,22,0,1,0,0,0,0,0,0,,15,
"1,4-diaminoanthracene-9,10-dione",C14H10N2O2,000128-95-0,Nc1ccc(N)c2C(=O)c3ccccc3C(=O)c12,"baughman,gl & weber,ej (1991) ",3,14,10,2,2,0,0,0,0,0,0,,18,
pyrene,C16H10,000129-00-0,c1cc2ccc3cccc4ccc(c1)c2c34,"hansch,c et al. (1995) ",4.88,16,10,0,0,0,0,0,0,0,0,,16,
"4-butyl-1-(4-hydroxyphenyl)-2-phenylpyrazolidine-3,5-dione",C19H20N2O3,000129-20-4,CCCCC1C(=O)N(N(C1=O)c2ccc(O)cc2)c3ccccc3,"hansch,c et al. (1995) ",2.72,19,20,2,3,0,0,0,0,0,0,,24,
"1-hydroxyanthracene-9,10-dione",C14H8O3,000129-43-1,Oc1cccc2C(=O)c3ccccc3C(=O)c12,"brooke,d et al. (1990) ",3.52,14,8,0,3,0,0,0,0,0,0,,17,
"4-iodo-1,5-dimethyl-2-phenylpyrazol-3-one",C11H11I1N2O1,000129-81-7,CN1N(c2ccccc2)C(=O)C(=C1C)I,"hansch,c et al. (1995) ",1.27,11,11,2,1,0,0,0,0,0,1,,15,
"naphthalene-1,4-dione",C10H6O2,000130-15-4,O=C1C=CC(=O)c2ccccc12,"hansch,c et al. (1995) ",1.71,10,6,0,2,0,0,0,0,0,0,,12,
"8-quinolinol,5-chloro-",C9H6Cl1N1O1,000130-16-5,Oc1c2ncccc2c(Cl)cc1,"hansch,c et al. (1995) ",2.88,9,6,1,1,0,0,0,1,0,0,,12,
"dimethyl benzene-1,2-dicarboxylate",C10H10O4,000131-11-3,COC(=O)c1ccccc1C(=O)OC,"ellington,jt & floyd,tl (1996) ",1.6,10,10,0,4,0,0,0,0,0,0,,14,
"dipropyl benzene-1,2-dicarboxylate",C14H18O4,000131-16-8,CCCOC(=O)c1ccccc1C(=O)OCCC,"hansch,c et al. (1995) ",3.27,14,18,0,4,0,0,0,0,0,0,,18,
"diprop-2-enyl benzene-1,2-dicarboxylate",C14H14O4,000131-17-9,C=CCOC(=O)c1ccccc1C(=O)OCC=C,"hansch,c et al. (1995) ",3.23,14,14,0,4,0,0,0,0,0,0,,18,
"dipentyl benzene-1,2-dicarboxylate",C18H26O4,000131-18-0,CCCCCOC(=O)c1ccccc1C(=O)OCCCCC,"ellington,jt & floyd,tl (1996) ",5.62,18,26,0,4,0,0,0,0,0,0,,22,
(2-hydroxy-4-methoxyphenyl)-phenylmethanone,C14H12O3,000131-57-7,COc1ccc(c(O)c1)C(=O)c2ccccc2,chemicals inspection and testing institu (1992) ,3.79,14,12,0,3,0,0,0,0,0,0,,17,
"2-cyclohexyl-4,6-dinitrophenol",C12H14N2O5,000131-89-5,Oc1c(cc(cc1[N+]([O-])=O)[N+]([O-])=O)C2CCCCC2,"ellington,jt & stancil,fe (1988) ",4.12,12,14,2,5,0,0,0,0,0,0,,19,
1-nitrosonaphthalen-2-ol,C10H7N1O2,000131-91-9,Oc1ccc2ccccc2c1N=O,"hansch,c et al. (1995) ",2.28,10,7,1,2,0,0,0,0,0,0,,13,
chlorpheniramine,C16H19Cl1N2,000132-22-9,CN(C)CCC(c1ccc(Cl)cc1)c2ccccn2.OC(=O)\C=C/C(O)=O,"hansch,c et al. (1995) ",3.38,16,19,2,0,0,0,0,1,0,0,,19,
2-nitrosonaphthalen-1-ol,C10H7N1O2,000132-53-6,Oc1c(ccc2ccccc12)N=O,"hansch,c et al. (1995) ",2.46,10,7,1,2,0,0,0,0,0,0,,13,
dibenzofuran,C12H8O1,000132-64-9,o1c2ccccc2c3ccccc13,"hansch,c et al. (1995) ",4.12,12,8,0,1,0,0,0,0,0,0,,13,
132-86-5,C10H8O2,000132-86-5,Oc1cc(O)c2ccccc2c1,"hansch,c et al. (1995) ",1.97,10,8,0,2,0,0,0,0,0,0,,12,
captan,C9H8Cl3N1O2S1,000133-06-2,ClC(Cl)(Cl)SN1C(=O)C2CC=CCC2C1=O,"tomlin,c (1997) ",2.8,9,8,1,2,1,0,0,3,0,0,,16,
folpet,C9H4Cl3N1O2S1,000133-07-3,ClC(Cl)(Cl)SN1C(=O)c2ccccc2C1=O,"hansch,c et al. (1995) ",2.85,9,4,1,2,1,0,0,3,0,0,,16,
phenyl 4-amino-2-hydroxybenzoate,C13H11N1O3,000133-11-9,Nc1ccc(c(O)c1)C(=O)Oc2ccccc2,"hansch,c et al. (1995) ",3.15,13,11,1,3,0,0,0,0,0,0,,17,
chloroprocaine,C13H19Cl1N2O2,000133-16-4,CCN(CC)CCOC(=O)c1ccc(N)cc1Cl,"hansch,c et al. (1995) ",2.86,13,19,2,2,0,0,0,1,0,0,,18,
4-(1h-indol-3-yl)butanoic acid,C12H13N1O2,000133-32-4,OC(=O)CCCc1c[nH]c2ccccc12,"hansch,c et al. (1995) ",2.3,12,13,1,2,0,0,0,0,0,0,,15,
trichlormethiazide,C8H8Cl3N3O4S2,000133-67-5,N[S](=O)(=O)c1cc2c(NC(N[S]2(=O)=O)C(Cl)Cl)cc1Cl,sangster (1994) ,0.62,8,8,3,4,2,0,0,3,0,0,,20,
"2-hydroxy-3,5-diiodobenzoic acid",C7H4I2O3,000133-91-5,OC(=O)c1cc(I)cc(I)c1O,"hansch,c et al. (1995) ",4.56,7,4,0,3,0,0,0,0,0,2,,12,
methyl 2-aminobenzoate,C8H9N1O2,000134-20-3,COC(=O)c1ccccc1N,"hansch,c et al. (1995) ",1.88,8,9,1,2,0,0,0,0,0,0,,11,
naphthalen-1-amine,C10H9N1,000134-32-7,Nc1cccc2ccccc12,"hansch,c et al. (1995) ",2.25,10,9,1,0,0,0,0,0,0,0,,11,
phenyl 2-acetyloxybenzoate,C15H12O4,000134-55-4,CC(=O)Oc1ccccc1C(=O)Oc2ccccc2,"nielsen,nm & bundgaard,h (1989) ",2.88,15,12,0,4,0,0,0,0,0,0,,19,
"n,n-diethyl-3-methylbenzamide",C12H17N1O1,000134-62-3,CCN(CC)C(=O)c1cccc(C)c1,sangster (1993) ,2.18,12,17,1,1,0,0,0,0,0,0,,14,
"1,2-di(phenyl)ethane-1,2-dione",C14H10O2,000134-81-6,O=C(c1ccccc1)C(=O)c2ccccc2,"hansch,c et al. (1995) ",3.38,14,10,0,2,0,0,0,0,0,0,,16,
"n-(2,3-dimethylphenyl)acetamide",C10H13N1O1,000134-98-5,CC(=O)Nc1cccc(C)c1C,"nakagawa,y et al. (1992) ",1.35,10,13,1,1,0,0,0,0,0,0,,12,
"1,2-diethylbenzene",C10H14,000135-01-3,CCc1ccccc1CC,"hansch,c et al. (1995) ",3.72,10,14,0,0,0,0,0,0,0,0,,10,
2-methoxybenzaldehyde,C8H8O2,000135-02-4,COc1ccccc1C=O,"bazaco,jf & coca,cm (1989) ",1.72,8,8,0,2,0,0,0,0,0,0,,10,
2-methyl-3-chloromethylhydrochlorothiazide,C9H11Cl2N3O4S2,000135-07-9,c1(S(=O)(=O)N)cc2S(=O)(=O)N(C)C(CCl)Nc2cc1Cl,"hansch,c et al. (1995) ",1.42,9,11,3,4,2,0,0,2,0,0,,20,
"1,1-dioxo-6-(trifluoromethyl)-3,4-dihydro-2h-benzo[e][1,2,4]thiadiazine-7-sulfonamide",C8H8F3N3O4S2,000135-09-1,N[S](=O)(=O)c1cc2c(NCN[S]2(=O)=O)cc1C(F)(F)F,"hansch,c et al. (1995) ",0.36,8,8,3,4,2,0,3,0,0,0,,20,
naphthalen-2-ol,C10H8O1,000135-19-3,Oc1ccc2ccccc2c1,"hansch,c et al. (1995) ",2.7,10,8,0,1,0,0,0,0,0,0,,11,
pentacene,C22H14,000135-48-8,c1ccc2cc3cc4cc5ccccc5cc4cc3cc2c1,"de voogt,p et al. (1990) ",7.11,22,14,0,0,0,0,0,0,0,0,,22,
10h-phenoxazine,C12H9N1O1,000135-67-1,N1c2ccccc2Oc3ccccc13,"hansch,c et al. (1995) ",3.85,12,9,1,1,0,0,0,0,0,0,,14,
n-phenylnaphthalen-2-amine,C16H13N1,000135-88-6,N(c1ccccc1)c2ccc3ccccc3c2,"hansch,c et al. (1995) ",4.38,16,13,1,0,0,0,0,0,0,0,,17,
butan-2-ylbenzene,C10H14,000135-98-8,CCC(C)c1ccccc1,"sherblom,pm & eganhouse,rp (1988) ",4.57,10,14,0,0,0,0,0,0,0,0,,10,
"dipropyl pyridine-2,5-dicarboxylate",C13H17N1O4,000136-45-8,CCCOC(=O)c1ccc(nc1)C(=O)OCCC,"tomlin,c (1994) ",3.57,13,17,1,4,0,0,0,0,0,0,,18,
butyl benzoate,C11H14O2,000136-60-7,CCCCOC(=O)c1ccccc1,"hansch,c et al. (1995) ",3.84,11,14,0,2,0,0,0,0,0,0,,13,
"4-hexylbenzene-1,3-diol",C12H18O2,000136-77-6,CCCCCCc1ccc(O)cc1O,"hansch,c et al. (1995) ",3.45,12,18,0,2,0,0,0,0,0,0,,14,
2-nonylphenol,C15H24O1,000136-83-4,CCCCCCCCCc1ccccc1O,"itokawa,h et al. (1989) ",5.76,15,24,0,1,0,0,0,0,0,0,,16,
2-aminobenzenethiol,C6H7N1S1,000137-07-5,Nc1ccccc1S,"hansch,c et al. (1995) ",1.43,6,7,1,0,1,0,0,0,0,0,,8,
"2,4,5-trimethylaniline",C9H13N1,000137-17-7,Cc1cc(C)c(N)cc1C,"jayasinghe,ds et al. (1992) ",2.27,9,13,1,0,0,0,0,0,0,0,,10,