Names,Formula,CAS No,SMILES,Reference,Exp logp,C,H,N,O,S,P,F,Cl,Br,I,,,
"1,1-dimethyl-3-(3-nitrophenyl)urea",C9H11N3O3,007159-98-0,CN(C)C(=O)Nc1cccc(c1)[N+]([O-])=O,"hansch,c et al. (1995) ",1.46,9,11,3,3,0,0,0,0,0,0,,15,
"1,1-dimethyl-3-(4-methylphenyl)urea",C10H14N2O1,007160-01-2,CN(C)C(=O)Nc1ccc(C)cc1,"hansch,c et al. (1995) ",1.33,10,14,2,1,0,0,0,0,0,0,,13,
"3-(4-methoxyphenyl)-1,1-dimethylurea",C10H14N2O2,007160-02-3,COc1ccc(NC(=O)N(C)C)cc1,"briggs,gg (1981) ",0.83,10,14,2,2,0,0,0,0,0,0,,14,
"propanamide, n-(3,4-dichlorophenyl)-2,2-dimethyl",C11H13Cl2N1O1,007160-22-7,Clc1c(Cl)ccc(NC(=O)C(C)(C)C)c1,pomona (1987) ,3.88,11,13,1,1,0,0,0,2,0,0,,15,
mefruside,C13H19Cl1N2O5S2,007195-27-9,CN(CC1(C)CCCO1)[S](=O)(=O)c2ccc(Cl)c(c2)[S](N)(=O)=O,biobyte (1995) ,1.54,13,19,2,5,2,0,0,1,0,0,,23,
4-dimethylaminodiazenylbenzoic acid,C9H11N3O2,007203-91-0,CN(C)N=Nc1ccc(cc1)C(O)=O,sangster (1993) ,2.33,9,11,3,2,0,0,0,0,0,0,,14,
azepane-2-thione,C6H11N1S1,007203-96-5,S=C1CCCCCN1,"hansch,c et al. (1995) ",0.75,6,11,1,0,1,0,0,0,0,0,,8,
chloromethyl phenyl sulfoxide,C7H7Cl1O1S1,007205-94-9,ClC[S](=O)c1ccccc1,biobyte starlist (2009) ,1.47,7,7,0,1,1,0,0,1,0,0,,10,
chloromethyl phenyl sulfone,C7H7Cl1O2S1,007205-98-3,ClC[S](=O)(=O)c1ccccc1,"hansch,c et al. (1995) ",1.24,7,7,0,2,1,0,0,1,0,0,,11,
1-acetylazulene,C12H10O1,007206-57-7,CC(=O)c1ccc2cccccc12,"hansch,c et al. (1995) ",2.87,12,10,0,1,0,0,0,0,0,0,,13,
azulene-1-carbaldehyde,C11H8O1,007206-61-3,O=Cc1ccc2cccccc12,"hansch,c et al. (1995) ",2.64,11,8,0,1,0,0,0,0,0,0,,12,
3-[4-(3-aminopropyl)piperazin-1-yl]propan-1-amine,C10H24N4,007209-38-3,NCCCN1CCN(CCCN)CC1,"hansch,c et al. (1995) ",-1.43,10,24,4,0,0,0,0,0,0,0,,14,
n-methyl-n-phenyldiazenylmethanamine,C8H11N3,007227-91-0,CN(C)N=Nc1ccccc1,"hansch,c et al. (1995) ",2.59,8,11,3,0,0,0,0,0,0,0,,11,
"2-(hydroxymethyl)-6-(2-methylphenoxy)oxane-3,4,5-triol",C13H18O6,007234-31-3,Cc1ccccc1OC2OC(CO)C(O)C(O)C2O,"hansch,c & leo,aj (1985) ",-0.16,13,18,0,6,0,0,0,0,0,0,,19,
"(4-nitrophenyl) n,n-dimethylcarbamate",C9H10N2O4,007244-70-4,CN(C)C(=O)Oc1ccc(cc1)[N+]([O-])=O,"hansch,c & leo,aj (1985) ",1.5,9,10,2,4,0,0,0,0,0,0,,15,
1-butoxy-4-nitrobenzene,C10H13N1O3,007244-78-2,CCCCOc1ccc(cc1)[N+]([O-])=O,"hansch,c et al. (1995) ",3.5,10,13,1,3,0,0,0,0,0,0,,14,
2-methyl-1-nitrosopiperidine,C6H12N2O1,007247-89-4,CC1CCCCN1N=O,"hansch,c et al. (1995) ",0.71,6,12,2,1,0,0,0,0,0,0,,9,
2-methylquinoxaline,C9H8N2,007251-61-8,Cc1cnc2ccccc2n1,"hansch,c et al. (1995) ",1.61,9,8,2,0,0,0,0,0,0,0,,11,
"2-(2-aminophenoxy)-6-(hydroxymethyl)oxane-3,4,5-triol",C12H17N1O6,007265-01-2,Nc1ccccc1OC2OC(CO)C(O)C(O)C2O,"hansch,c & leo,aj (1985) ",-1.23,12,17,1,6,0,0,0,0,0,0,,19,
"1,3,5-triazine-2,4-diamine, 6-chloro-n-ethyl-n'-",C9H16Cl1N5,007286-69-3,CCC(C)Nc1nc(NCC)nc(Cl)n1,"kaune, a et al. (1998a) ",2.61,9,16,5,0,0,0,0,1,0,0,,15,
"6-methylsulfanyl-n,n'-di(propan-2-yl)-1,3,5-triazine-2,4-diamine",C10H19N5S1,007287-19-6,CSc1nc(NC(C)C)nc(NC(C)C)n1,"hansch,c et al. (1995) ",3.51,10,19,5,0,1,0,0,0,0,0,,16,
monalide (potablan),C13H18Cl1N1O1,007287-36-7,O=C(Nc1ccc(Cl)cc1)C(C)(C)CCC,"mitsutake,ki et al. (1986) ",3.83,13,18,1,1,0,0,0,1,0,0,,16,
"3-methoxy-n,n-dimethylbenzamide",C10H13N1O2,007290-99-5,COc1cccc(c1)C(=O)N(C)C,"hansch,c et al. (1995) ",1,10,13,1,2,0,0,0,0,0,0,,13,
"4-methoxy-n,n-dimethylbenzamide",C10H13N1O2,007291-00-1,COc1ccc(cc1)C(=O)N(C)C,"hansch,c et al. (1995) ",0.96,10,13,1,2,0,0,0,0,0,0,,13,
"2-methoxy-n,n-dimethylbenzamide",C10H13N1O2,007291-34-1,COc1ccccc1C(=O)N(C)C,"nakagawa,y et al. (1992) ",0.71,10,13,1,2,0,0,0,0,0,0,,13,
(4-methylsulfanylphenyl) dipropyl phosphate,C13H21O4P1S1,007292-16-2,CCCO[P](=O)(OCCC)Oc1ccc(SC)cc1,"hansch,c et al. (1995) ",3.67,13,21,0,4,1,1,0,0,0,0,,19,
3-methoxypyridine,C6H7N1O1,007295-76-3,COc1cccnc1,"hansch,c et al. (1995) ",0.99,6,7,1,1,0,0,0,0,0,0,,8,
4-chlorophenyldimethylcarbamate,C9H10Cl1N1O2,007305-03-5,CN(Cc1ccc(Cl)cc1)C([O-])=O,"hansch,c & leo,aj (1985) ",2.27,9,10,1,2,0,0,0,1,0,0,,13,
"(2-bromophenyl) n,n-dimethylcarbamate",C9H10Br1N1O2,007305-04-6,CN(C)C(=O)Oc1ccccc1Br,"hansch,c & leo,aj (1985) ",2.17,9,10,1,2,0,0,0,0,1,0,,13,
"(2-methylphenyl) n,n-dimethylcarbamate",C10H13N1O2,007305-06-8,CN(C)C(=O)Oc1ccccc1C,"hansch,c et al. (1995) ",1.86,10,13,1,2,0,0,0,0,0,0,,13,
"(3-methylphenyl) n,n-dimethylcarbamate",C10H13N1O2,007305-07-9,CN(C)C(=O)Oc1cccc(C)c1,"hansch,c et al. (1995) ",2.05,10,13,1,2,0,0,0,0,0,0,,13,
"(4-methylphenyl) n,n-dimethylcarbamate",C10H13N1O2,007305-08-0,CN(C)C(=O)Oc1ccc(C)cc1,"hansch,c et al. (1995) ",2.03,10,13,1,2,0,0,0,0,0,0,,13,
"(3-methoxyphenyl) n,n-dimethylcarbamate",C10H13N1O3,007305-09-1,COc1cccc(OC(=O)N(C)C)c1,"hansch,c et al. (1995) ",1.6,10,13,1,3,0,0,0,0,0,0,,14,
"(4-methoxyphenyl) n,n-dimethylcarbamate",C10H13N1O3,007305-10-4,COc1ccc(OC(=O)N(C)C)cc1,"hansch,c et al. (1995) ",1.53,10,13,1,3,0,0,0,0,0,0,,14,
"5,5-dimethylhexane-2,4-dione",C8H14O2,007307-04-2,CC(=O)CC(=O)C(C)(C)C,"hansch,c et al. (1995) ",1.67,8,14,0,2,0,0,0,0,0,0,,10,
"5-(phenylmethyl)pyrimidine-2,4-diamine",C11H12N4,007319-45-1,Nc1ncc(Cc2ccccc2)c(N)n1,"hansch,c et al. (1995) ",1.58,11,12,4,0,0,0,0,0,0,0,,15,
3-methyl-5-oxo-5-(4-phenylphenyl)pentanoic acid,C18H18O3,007320-97-0,CC(CC(O)=O)CC(=O)c1ccc(cc1)c2ccccc2,sangster (1993) ,3.82,18,18,0,3,0,0,0,0,0,0,,21,
3-hydroxy-1-phenylurea,C7H8N2O2,007335-35-5,ONC(=O)Nc1ccccc1,"hansch,c et al. (1995) ",0.41,7,8,2,2,0,0,0,0,0,0,,11,
"n-(2-hydroxy-1,3,10-trimethoxy-9-oxo-6,7-dihydro-5h-benzo[d]heptalen-7-yl)acetamide",C21H23N1O6,007336-36-9,COC1=CC=C2C(=CC1=O)C(CCc3cc(OC)c(O)c(OC)c23)NC(C)=O,"hansch,c et al. (1995) ",0.48,21,23,1,6,0,0,0,0,0,0,,28,
"2,3,4-trichlorotoluene",C7H5Cl3,007359-72-0,Cc1ccc(Cl)c(Cl)c1Cl,biobyte (1995) ,4.56,7,5,0,0,0,0,0,3,0,0,,10,
2-acetamido-3-phenylpropanamide,C11H14N2O2,007376-90-1,CC(=O)NC(Cc1ccccc1)C(N)=O,"hansch,c et al. (1995) ",-0.04,11,14,2,2,0,0,0,0,0,0,,15,
methoxychlor-ddd,C16H16Cl2O2,007388-31-0,c1(C(C(Cl)Cl)c2ccc(OC)cc2)ccc(OC)cc1,"hansch,c & leo,aj (1985) ",4.47,16,16,0,2,0,0,0,2,0,0,,20,
o-chloro-n-phenylsuccinimide,C10H8Cl1N1O2,007402-22-4,c1cc(Cl)c(N2C(=O)CCC2(=O))cc1,"hansch,c & leo,aj (1985) ",0.56,10,8,1,2,0,0,0,1,0,0,,14,
n-ethyl-4-methoxybenzamide,C10H13N1O2,007403-41-0,CCNC(=O)c1ccc(OC)cc1,"suryanarayana,mvs et al. (1991) ",1.14,10,13,1,2,0,0,0,0,0,0,,13,
"1,2,4-triazole,3,5-dibromo",C2H1Br2N3,007411-23-6,C1(=NC(=NN1)Br)Br,"hansch,c & leo,aj (1985) ",2.24,2,1,3,0,0,0,0,0,2,0,,7,
"4-amino-n-(2,4-dimethylpyrimidin-5-yl)benzenesulfonamide",C12H14N4O2S1,007411-79-2,Cc1ncc(N[S](=O)(=O)c2ccc(N)cc2)c(C)n1,sangster (1993) ,0.59,12,14,4,2,1,0,0,0,0,0,,19,
"3-(2,5-dioxopyrrol-1-yl)propanoic acid",C7H7N1O4,007423-55-4,OC(=O)CCN1C(=O)C=CC1=O,"hansch,c & leo,aj (1985) ",0.04,7,7,1,4,0,0,0,0,0,0,,12,
"p-chlorophenylalanine,dl",C9H10Cl1N1O2,007424-00-2,C(N)(Cc1ccc(Cl)cc1)C(=O)O,biobyte starlist (2009) ,-0.47,9,10,1,2,0,0,0,1,0,0,,13,
"heptane-3,5-dione",C7H12O2,007424-54-6,CCC(=O)CC(=O)CC,"hansch,c & leo,aj (1985) ",1.12,7,12,0,2,0,0,0,0,0,0,,9,
1-ethyl-1-hydroxyurea,C3H8N2O2,007433-42-3,CCN(O)C(N)=O,"hansch,c et al. (1995) ",-0.1,3,8,2,2,0,0,0,0,0,0,,7,
1-hydroxy-1-methylurea,C2H6N2O2,007433-43-4,CN(O)C(N)=O,"hansch,c et al. (1995) ",-0.46,2,6,2,2,0,0,0,0,0,0,,6,
2-methylcyclohexan-1-ol,C7H14O1,007443-70-1,CC1CCCCC1O,"funasaki,n et al. (1986) ",1.84,7,14,0,1,0,0,0,0,0,0,,8,
n-(4-dimethylaminophenyl)acetamide,C10H14N2O1,007463-28-7,CN(C)c1ccc(NC(C)=O)cc1,"hansch,c et al. (1995) ",1,10,14,2,1,0,0,0,0,0,0,,13,
n-(3-acetylphenyl)acetamide,C10H11N1O2,007463-31-2,CC(=O)Nc1cccc(c1)C(C)=O,"hansch,c et al. (1995) ",1.06,10,11,1,2,0,0,0,0,0,0,,13,
3-chloro-2-methylacetanilide,C9H10Cl1N1O1,007463-35-6,Clc1cccc(NC(=O)(C))c1C,"nakagawa,y et al. (1992) ",1.82,9,10,1,1,0,0,0,1,0,0,,12,
"3-buten-2-one,4-(3-nitrophenyl)-",C10H9N1O3,007466-48-0,CC(=O)C=Cc1cc(N(=O)(=O))ccc1,"yamagami,c et al. (1998) ",1.88,10,9,1,3,0,0,0,0,0,0,,14,
2-methoxybenzohydrazide,C8H10N2O2,007466-54-8,COc1ccccc1C(=O)NN,"hansch,c & leo,aj (1985) ",0.25,8,10,2,2,0,0,0,0,0,0,,12,
n-(3-dimethylaminophenyl)acetamide,C10H14N2O1,007474-95-5,CN(C)c1cccc(NC(C)=O)c1,"hansch,c et al. (1995) ",1.29,10,14,2,1,0,0,0,0,0,0,,13,
"4-amino-1-[5-(hydroxymethyl)-2,5-dihydrofuran-2-yl]pyrimidin-2-one",C9H11N3O3,007481-88-1,NC1=NC(=O)N(C=C1)C2OC(CO)C=C2,sangster (1993) ,-1.55,9,11,3,3,0,0,0,0,0,0,,15,
4-amino-1-[5-(hydroxymethyl)oxolan-2-yl]pyrimidin-2-one,C9H13N3O3,007481-89-2,NC1=NC(=O)N(C=C1)C2CCC(CO)O2,sangster (1993) ,-1.3,9,13,3,3,0,0,0,0,0,0,,15,
2-(2-oxopyrrolidin-1-yl)acetamide,C6H10N2O2,007491-74-9,NC(=O)CN1CCCC1=O,"altomare,c et al. (1995) ",-1.54,6,10,2,2,0,0,0,0,0,0,,10,
n-(4-bromophenyl)-2-phenylacetamide,C14H12Br1N1O1,007495-11-6,Brc1ccc(NC(=O)Cc2ccccc2)cc1,"yamagami,c et al. (1984) ",3.7,14,12,1,1,0,0,0,0,1,0,,17,
2-(4-bromophenyl)indolizine,C14H10Br1N1,007496-72-2,Brc1ccc(cc1)c2cn3ccccc3c2,"hansch,c et al. (1995) ",5.43,14,10,1,0,0,0,0,0,1,0,,16,
2-(4-chlorophenyl)indolizine,C14H10Cl1N1,007496-73-3,Clc1ccc(cc1)c2cn3ccccc3c2,"hansch,c et al. (1995) ",5.2,14,10,1,0,0,0,0,1,0,0,,16,
2-(4-methylphenyl)indolizine,C15H13N1,007496-81-3,Cc1ccc(cc1)c2cn3ccccc3c2,"hansch,c et al. (1995) ",4.96,15,13,1,0,0,0,0,0,0,0,,16,
2-(4-methoxyphenyl)indolizine,C15H13N1O1,007496-82-4,COc1ccc(cc1)c2cn3ccccc3c2,"hansch,c et al. (1995) ",4.2,15,13,1,1,0,0,0,0,0,0,,17,
2-methyl-n-propan-2-ylpropan-2-amine,C7H17N1,007515-80-2,CC(C)NC(C)(C)C,"hansch,c et al. (1995) ",1.56,7,17,1,0,0,0,0,0,0,0,,8,
1-ethenyl-3-ethylbenzene,C10H12,007525-62-4,CCc1cccc(C=C)c1,chemicals inspection and testing institu (1992) ,4.11,10,12,0,0,0,0,0,0,0,0,,10,
4-methyl-b-nitrostyrene,C9H9N1O2,007559-36-6,Cc1ccc(C=CN(=O)(=O))cc1,"hansch,c & leo,aj (1985) ",2.66,9,9,1,2,0,0,0,0,0,0,,12,
n-cyclohexyl-n-methylcyclohexanamine,C13H25N1,007560-83-0,CN(C1CCCCC1)C2CCCCC2,"hansch,c et al. (1995) ",3.71,13,25,1,0,0,0,0,0,0,0,,14,
"2-(4-ethylphenyl)indene-1,3-dione",C17H14O2,007561-67-3,CCc1ccc(cc1)C2C(=O)c3ccccc3C2=O,sangster (1993) ,3.92,17,14,0,2,0,0,0,0,0,0,,19,
"2-(3-hydroxyquinolin-2-yl)indene-1,3-dione",C18H11N1O3,007576-65-0,Oc1cc2ccccc2nc1C3C(=O)c4ccccc4C3=O,"baughman,gl & weber,ej (1991) ",5,18,11,1,3,0,0,0,0,0,0,,22,
2-[(2-methylpropan-2-yl)oxy]ethanol,C6H14O2,007580-85-0,CC(C)(C)OCCO,"bintein,s et al. (1993) ",0.39,6,14,0,2,0,0,0,0,0,0,,8,
1-(2-diethoxyphosphoryl-1-ethoxyethoxy)ethane,C10H23O5P1,007598-61-0,CCOC(C[P](=O)(OCC)OCC)OCC,pomona (1987) ,0.69,10,23,0,5,0,1,0,0,0,0,,16,
(4-isothiocyanatophenyl)-phenyldiazene,C13H9N3S1,007612-96-6,S=C=Nc1ccc(cc1)N=Nc2ccccc2,"hansch,c & leo,aj (1985) ",5.55,13,9,3,0,1,0,0,0,0,0,,17,
2-isothiocyano-anthracene,C15H9N1S1,007613-10-7,S=C=Nc1ccc2cc3ccccc3cc2c1,"hansch,c & leo,aj (1985) ",5.7,15,9,1,0,1,0,0,0,0,0,,17,
"n,n-dimethyl-2,2-di(phenyl)ethanamine",C16H19N1,007647-54-3,CN(C)CC(c1ccccc1)c2ccccc2,biobyte starlist (2009) ,3.58,16,19,1,0,0,0,0,0,0,0,,17,
2-methylbenzohydrazide,C8H10N2O1,007658-80-2,Cc1ccccc1C(=O)NN,"hansch,c & leo,aj (1985) ",0.22,8,10,2,1,0,0,0,0,0,0,,11,
1-(2-amino-3-phenylpropanoyl)pyrrolidine-2-carboxylic acid,C14H18N2O3,007669-65-0,NC(Cc1ccccc1)C(=O)N2CCCC2C(O)=O,biobyte starlist (2009) ,-1.23,14,18,2,3,0,0,0,0,0,0,,19,
propyl pyridine-3-carboxylate,C9H11N1O2,007681-15-4,CCCOC(=O)c1cccnc1,"hansch,c et al. (1995) ",1.94,9,11,1,2,0,0,0,0,0,0,,12,
(1-methyl-5-nitroimidazol-2-yl)methyl carbamate,C6H8N4O4,007681-76-7,Cn1c(COC(N)=O)ncc1[N+]([O-])=O,sangster (1994) ,-0.38,6,8,4,4,0,0,0,0,0,0,,14,
"benzimidazole-4,5,6-tribr-2-cf3",C8H2Br3F3N2,007682-32-8,C1=C2C(=C(C(=C1Br)Br)Br)N=C(N2)C(F)(F)F,"hansch,c & leo,aj (1985) ",4.08,8,2,2,0,0,0,3,0,3,0,,16,
"benzimidazole-2,4,5,6,7-pentacl",C7H1Cl5N2,007682-34-0,C12=C(C(=C(C(=C1Cl)Cl)Cl)Cl)N=C(N2)Cl,"hansch,c & leo,aj (1985) ",4.53,7,1,2,0,0,0,0,5,0,0,,14,
"2,4,5-trichloroimidazole",C3H1Cl3N2,007682-38-4,Clc1[nH]c(Cl)c(Cl)n1,"hansch,c et al. (1995) ",1.85,3,1,2,0,0,0,0,3,0,0,,8,
31456-25-4,C20H16N2O4,007689-03-4,CCC1(O)C(=O)OCC2=C1C=C3N(Cc4cc5ccccc5nc34)C2=O,"hansch,c et al. (1995) ",1.74,20,16,2,4,0,0,0,0,0,0,,26,
benzimidazole-5-chloro-2-mes,C8H7Cl1N2S1,007692-57-1,CSC1=NC2=C(N1)C=C(C=C2)Cl,"hansch,c & leo,aj (1985) ",3.22,8,7,2,0,1,0,0,1,0,0,,12,
1-(phenoxy)-3-(propan-2-ylamino)propan-2-ol,C12H19N1O2,007695-63-8,CC(C)NCC(O)COc1ccccc1,"hansch,c et al. (1995) ",1.72,12,19,1,2,0,0,0,0,0,0,,15,
"(1,3-dioxo-4,5,6,7-tetrahydroisoindol-2-yl)methyl 2,2-dimethyl-3-(2-methylprop-1-enyl)cyclopropane-1-carboxylate",C19H25N1O4,007696-12-0,CC(C)=CC1C(C(=O)OCN2C(=O)C3=C(CCCC3)C2=O)C1(C)C,"hansch,c et al. (1995) ",4.73,19,25,1,4,0,0,0,0,0,0,,24,
crotoxyphos,C14H19O6P1,007700-17-6,CO[P](=O)(OC)OC(/C)=C/C(=O)OC(C)c1ccccc1,biobyte (1995) ,3.3,14,19,0,6,0,1,0,0,0,0,,21,
"3-furancarbonitrile, 5-[(dimethylamino)methylene",C14H12N2O2,007703-36-8,CN(C)C=C2OC(=O)C(C(#N))=C2c1ccccc1,sangster (1994) ,1.07,14,12,2,2,0,0,0,0,0,0,,18,
"2-(hydroxymethyl)-5-[6-(3-methylbut-2-enylamino)purin-9-yl]oxolane-3,4-diol",C15H21N5O4,007724-76-7,CC(C)=CCNc1ncnc2n(cnc12)C3OC(CO)C(O)C3O,biobyte starlist (2009) ,1.3,15,21,5,4,0,0,0,0,0,0,,24,
"n-(2,6-dimethylphenyl)-2-ethylaminoacetamide",C12H18N2O1,007728-40-7,CCNCC(=O)Nc1c(C)cccc1C,sangster (1993) ,1.32,12,18,2,1,0,0,0,0,0,0,,15,
"thiazolidine, 2-(p-cl phenyl)",C9H10Cl1N1S1,007738-99-0,c1c(C2SCCN2)ccc(Cl)c1,"hansch,c & leo,aj (1985) ",2.1,9,10,1,0,1,0,0,1,0,0,,12,
"2h-1,2,4-benzothiadiazine, 3-(1-ethylpropyl)-, 1",C12H16N2O2S1,007752-09-2,CCC(C1NS(=O)(=O)c2c(cccc2)N=1)CC,pomona (1987) ,1.88,12,16,2,2,1,0,0,0,0,0,,17,
2-ethyl-n-(2-sulfamoylphenyl)butanamide,C12H18N2O3S1,007752-27-4,CCC(CC)C(=O)Nc1ccccc1[S](N)(=O)=O,"monzani,a et al. (1985) ",1.62,12,18,2,3,1,0,0,0,0,0,,18,
"2,4-nh2-5(3,4diclph)-6-mepyrimidine",C11H10Cl2N4,007761-45-7,Cc2nc(N)nc(N)c2c1ccc(Cl)c(Cl)c1,"hansch,c & leo,aj (1985) ",2.82,11,10,4,0,0,0,0,2,0,0,,17,
2-methyl-5-prop-1-en-2-ylcyclohexan-1-one,C10H16O1,007764-50-3,CC1CCC(CC1=O)C(C)=C,"griffin,s et al. (1999) ",2.85,10,16,0,1,0,0,0,0,0,0,,11,
"n,n,1,3-tetramethyl-2-oxo-1,3-diaza-2$l^{5}-phosphacyclopentan-2-amine",C6H16N3O1P1,007778-06-5,CN(C)[P]1(=O)N(C)CCN1C,"debord,j & labadie,m (1985) ",0.02,6,16,3,1,0,1,0,0,0,0,,11,
"1,2-dimethoxypropane",C5H12O2,007778-85-0,COCC(C)OC,"hansch,c et al. (1995) ",-0.09,5,12,0,2,0,0,0,0,0,0,,7,
ethyl 3-hydroxybenzoate,C9H10O3,007781-98-8,CCOC(=O)c1cccc(O)c1,sangster (1993) ,2.47,9,10,0,3,0,0,0,0,0,0,,12,
"1,3,3-trimethylbicyclo[2.2.1]heptan-2-one",C10H16O1,007787-20-4,CC1(C)C2CCC(C)(C2)C1=O,"griffin,s et al. (1999) ",3.52,10,16,0,1,0,0,0,0,0,0,,11,
"2-quinolin-2-ylindene-1,3-dione",C18H11N1O2,008003-22-3,O=C1C(c2ccc3ccccc3n2)C(=O)c4ccccc14,"baughman,gl & weber,ej (1991) ",4.1,18,11,1,2,0,0,0,0,0,0,,21,
"2-hydroxy-1,2-di(phenyl)ethanone",C14H12O2,008050-35-9,OC(c1ccccc1)C(=O)c2ccccc2,"hansch,c et al. (1995) ",2.13,14,12,0,2,0,0,0,0,0,0,,16,
"2-[butyl-[4-(2,6-dicyano-4-nitrophenyl)diazenyl-3-methylphenyl]amino]ethyl acetate",C23H24N6O4,072828-64-9,CCCCN(CCOC(C)=O)c1ccc(N=Nc2c(cc(cc2C#N)[N+]([O-])=O)C#N)c(C)c1,"baughman,gl & weber,ej (1991) ",5.5,23,24,6,4,0,0,0,0,0,0,,33,
"5-methyl-1,2-oxazol-3-one",C4H5N1O2,not,CC1=CC(=O)NO1,biobyte starlist (2009) ,0.46,4,5,1,2,0,0,0,0,0,0,,7,
1-dodecyl-5-oxopyrrolidine-3-carboxylic acid,C17H31N1O3,010054-21-4,CCCCCCCCCCCCN1CC(CC1=O)C(O)=O,"sasaki,h et al. (1988) ",2.6,17,31,1,3,0,0,0,0,0,0,,21,
5-bromo-1h-indole,C8H6Br1N1,010075-50-0,Brc1ccc2[nH]ccc2c1,"hansch,c et al. (1995) ",3,8,6,1,0,0,0,0,0,1,0,,10,
"2-propen-1-one, 3-(2,5-dihydro-1h-pyrrol-1-yl)-1",C16H19N1O4,010078-46-3,COc1cc(C(=O)C=CN2CC=CC2)cc(OC)c1OC,pomona (1987) ,1.77,16,19,1,4,0,0,0,0,0,0,,21,
dimethyl phenyl phosphate,C8H11O4P1,010113-28-7,CO[P](=O)(OC)Oc1ccccc1,"hansch,c & leo,aj (1985) ",1.22,8,11,0,4,0,1,0,0,0,0,,13,
2-(4-imidazolyl)ethylamine-2-acrylamide,C8H11N3O1,010124-85-3,C=CC(=O)NCCC1=CN=CN1,"chiari,m et al. (1991) ",-0.21,8,11,3,1,0,0,0,0,0,0,,12,
"3-pyridinecarbonitrile, 2-chloro-6-methyl-5-phen",C13H9Cl1N2,010176-63-3,Clc1c(C(#N))cc(c2ccccc2)c(C)n1,sangster (1993) ,3.24,13,9,2,0,0,0,0,1,0,0,,16,
1-(phenylmethyl)pyrazole,C10H10N2,not,C(n1cccn1)c2ccccc2,biobyte (1995) ,1.78,10,10,2,0,0,0,0,0,0,0,,12,
3-(acetyloxymethyl)-7-[(2-cyanoacetyl)amino]-8-oxo-5-thia-1-azabicyclo[4.2.0]oct-2-ene-2-carboxylic acid,C13H13N3O6S1,010206-21-0,CC(=O)OCC1=C(N2C(SC1)C(NC(=O)CC#N)C2=O)C(O)=O,"hansch,c et al. (1995) ",-0.45,13,13,3,6,1,0,0,0,0,0,,23,
"spiro[azuleno[4,5-b]furan-6(2h),2'-oxiran]-2-one",C22H26O8,010215-89-1,O=C1OC2=C3C=CC=C3C4(CO4)C=CC2=C1,sangster (1993) ,0.76,22,26,0,8,0,0,0,0,0,0,,30,
"2,2-dibromo-2-cyanoacetamide",C3H2Br2N2O1,010222-01-2,NC(=O)C(Br)(Br)C#N,usepa red; case# 3056 (ph 9) ,0.82,3,2,2,1,0,0,0,0,2,0,,8,
"1h-benz[de]isoquinoline-1,3(2h)-dione, 2-[(acety",C15H11N1O4,010245-51-9,CC(=O)OCN1C(=O)c2c3c(ccc2)cccc3C1(=O),"nishimura,k et al. (1988) ",2.34,15,11,1,4,0,0,0,0,0,0,,20,
"5h-3,6-methenofuro[3,2-g]oxireno[d]oxacycloundec",C15H16O6,010247-71-9,C=C3C(=O)OC2C3C(O)C4OC4(C)CC1OC(=O)C(C2)=C1,sangster (1994) ,-0.64,15,16,0,6,0,0,0,0,0,0,,21,
n-phenylpentanamide,C11H15N1O1,010264-18-3,CCCCC(=O)Nc1ccccc1,"hansch,c et al. (1995) ",2.61,11,15,1,1,0,0,0,0,0,0,,13,
(amino-methylsulfanylphosphoryl)oxymethane,C2H8N1O2P1S1,010265-92-6,CO[P](N)(=O)SC,"tomlin,c (1997) ",-0.8,2,8,1,2,1,1,0,0,0,0,,7,
n-(3-acetamidophenyl)acetamide,C10H12N2O2,010268-78-7,CC(=O)Nc1cccc(NC(C)=O)c1,"hansch,c et al. (1995) ",0.5,10,12,2,2,0,0,0,0,0,0,,14,
4-methyl-5-phenyldithiole-3-thione,C10H8S3,018648-91-4,CC1=C(SSC1=S)c2ccccc2,"bona,m et al. (1995) ",3.17,10,8,0,0,3,0,0,0,0,0,,13,
"n-(3,4-dichlorophenyl)benzamide",C13H9Cl2N1O1,010286-75-6,Clc1ccc(NC(=O)c2ccccc2)cc1Cl,pomona (1987) ,4.42,13,9,1,1,0,0,0,2,0,0,,17,
dialifor,C14H17Cl1N1O4P1S2,010311-84-9,CCO[P](=S)(OCC)SC(CCl)N1C(=O)c2ccccc2C1=O,"hansch,c et al. (1995) ",4.69,14,17,1,4,2,1,0,1,0,0,,23,
4-(2-methylpropyl)morpholine,C8H17N1O1,010315-98-7,CC(C)CN1CCOCC1,chemicals inspection and testing institu (1992) ,1.17,8,17,1,1,0,0,0,0,0,0,,10,
4-(phenylmethyl)morpholine,C11H15N1O1,010316-00-4,C1CN(CCO1)Cc2ccccc2,"hansch,c et al. (1995) ",1.58,11,15,1,1,0,0,0,0,0,0,,13,
4-isothiocyano-stilbene,C15H11N1S1,010319-35-4,S=C=Nc1ccc(C=Cc2ccccc2)cc1,"hansch,c & leo,aj (1985) ",5.85,15,11,1,0,1,0,0,0,0,0,,17,
"4-phenyl-1,2,3,6-tetrahydropyridine",C11H13N1,010338-69-9,C1CC(=CCN1)c2ccccc2,"altomare,ca et al. (1992) ",1.99,11,13,1,0,0,0,0,0,0,0,,12,
1-[4-(1-piperidyl)phenyl]ethanone,C13H17N1O1,010342-85-5,CC(=O)c1ccc(cc1)N2CCCCC2,"hansch,c et al. (1995) ",3.13,13,17,1,1,0,0,0,0,0,0,,15,
"benzamide, 2-chloro-n,n-diethyl-",C11H14Cl1N1O1,010345-79-6,CCN(CC)C(=O)c1ccccc1Cl,"suryanarayana,mvs et al. (1991) ",2.1,11,14,1,1,0,0,0,1,0,0,,14,
"3-methyl-4-phenyl-1,2,5-oxadiazole",C9H8N2O1,010349-09-4,Cc1nonc1c2ccccc2,"calvino,r et al. (1992) ",2.59,9,8,2,1,0,0,0,0,0,0,,12,
"4-phenyl-1,2,5-oxadiazol-3-amine",C8H7N3O1,010349-14-1,Nc1nonc1c2ccccc2,"calvino,r et al. (1992) ",1.81,8,7,3,1,0,0,0,0,0,0,,12,
"2-(5-methyl-1,2,4-oxadiazol-3-yl)pyridine",C8H7N3O1,010350-68-2,Cc1onc(n1)c2ccccn2,"hansch,c & leo,aj (1985) ",0.79,8,7,3,1,0,0,0,0,0,0,,12,
n-(4-methylsulfanylphenyl)acetamide,C9H11N1O1S1,010352-44-0,CSc1ccc(NC(C)=O)cc1,pomona (1987) ,2.03,9,11,1,1,1,0,0,0,0,0,,12,
n-(phenylmethyl)furan-2-carboxamide,C12H11N1O2,010354-48-0,O=C(NCc1ccccc1)c2occc2,"hansch,c et al. (1995) ",1.81,12,11,1,2,0,0,0,0,0,0,,15,
n-butylpyridine-3-carboxamide,C10H14N2O1,010354-55-9,CCCCNC(=O)c1cccnc1,"hansch,c et al. (1995) ",0.9,10,14,2,1,0,0,0,0,0,0,,13,
"o=p(nme)(ome)o-(2,4-diclphenyl)",C8H10Cl2N1O3P1,010363-40-3,CNP(=O)(Oc1c(Cl)cc(Cl)cc1)OC,"hansch,c & leo,aj (1985) ",2.41,8,10,1,3,0,1,0,2,0,0,,15,
"2-propenoic acid, 3-phenyl-, 2-(diethylamino)eth",C15H21N1O2,010369-88-7,CCN(CCOC(=O)C=Cc1ccccc1)CC,sangster (1993) ,3.61,15,21,1,2,0,0,0,0,0,0,,18,
tetrazepam,C16H17Cl1N2O1,010379-14-3,CN1C(=O)CN=C(C2=CCCCC2)c3cc(Cl)ccc13,"hansch,c et al. (1995) ",3.2,16,17,2,1,0,0,0,1,0,0,,20,
2-[di(phenyl)methylidene]propanedinitrile,C16H10N2,010394-96-4,N#CC(C#N)=C(c1ccccc1)c2ccccc2,"hansch,c & leo,aj (1985) ",3.55,16,10,2,0,0,0,0,0,0,0,,18,
"n,n-dimethyl-2-(phenoxy)acetamide",C10H13N1O2,010397-59-8,CN(C)C(=O)COc1ccccc1,"hansch,c & leo,aj (1985) ",0.8,10,13,1,2,0,0,0,0,0,0,,13,