Names,Formula,CAS No,SMILES,Reference,Exp logp,C,H,N,O,S,P,F,Cl,Br,I,,,
"2,3'-dichlorobiphenyl",C12H8Cl2,025569-80-6,Clc1cccc(c1)c2ccccc2Cl,"hansch,c et al. (1995) ",5.02,12,8,0,0,0,0,0,2,0,0,,14,
3me-5-(5no2-furpropenilidene)thiazolidn-24-dione,C11H8N2O5S1,025580-68-1,CN1C(=O)SC(=CC=Cc2ccc(N(=O)(=O))o2)C1(=O),"hansch,c & leo,aj (1985) ",1.4,11,8,2,5,1,0,0,0,0,0,,19,
"4-thiazolidinone, 2-imino-3-methyl-5-[(5-nitro-2",C9H7N3O4S1,025580-69-2,CN1C(=N)SC(=Cc2ccc(N(=O)(=O))o2)C1(=O),"hansch,c & leo,aj (1985) ",1.44,9,7,3,4,1,0,0,0,0,0,,17,
"n-(1,3-thiazol-2-yl)formamide",C4H4N2O1S1,025602-39-5,O=CNc1sccn1,"hansch,c & leo,aj (1985) ",0.54,4,4,2,1,1,0,0,0,0,0,,8,
"2,4-thiazolidinedione, 3-methyl-5-(5-nitrofurfur",C9H6N2O5S1,025603-07-0,CN1C(=O)C(=Cc2ccc(N(=O)(=O))o2)SC1(=O),"hansch,c et al. (1995) ",1.78,9,6,2,5,1,0,0,0,0,0,,17,
"4-thiazolidinone, 3-ethyl-2-imino-5-[(5-nitro-2-",C10H9N3O4S1,025603-08-1,CCN1C(=N)SC(=Cc2ccc(N(=O)(=O))o2)C1(=O),"hansch,c & leo,aj (1985) ",1.44,10,9,3,4,1,0,0,0,0,0,,18,
"4-thiazolidinone, 3-methyl-2-(mehtylimino)-5-[(5",C10H9N3O4S1,025603-09-2,CN=C1SC(=Cc2ccc(N(=O)(=O))o2)C(=O)N1C,"hansch,c & leo,aj (1985) ",1.42,10,9,3,4,1,0,0,0,0,0,,18,
3et-5-(5no2-furfuril)thiazolidin-4-on,C10H8N2O5S1,025603-13-8,CCN1C(=O)C(=Cc2ccc(N(=O)(=O))o2)SC1(=O),"hansch,c & leo,aj (1985) ",2.29,10,8,2,5,1,0,0,0,0,0,,18,
"3al-5-(5no2-furfuril)thiazolidin-2,4-one",C11H8N2O5S1,025603-14-9,C=CCN1C(=O)C(=Cc2ccc(N(=O)(=O))o2)SC1(=O),"hansch,c & leo,aj (1985) ",2.22,11,8,2,5,1,0,0,0,0,0,,19,
4-amino-n-(4-cyanophenyl)benzenesulfonamide,C13H11N3O2S1,025612-07-1,Nc1ccc(cc1)[S](=O)(=O)Nc2ccc(cc2)C#N,"hansch,c & leo,aj (1985) ",1.83,13,11,3,2,1,0,0,0,0,0,,19,
1-phenyl-2-propan-2-ylbenzene,C15H16,025640-78-2,CC(C)c1ccccc1c2ccccc2,"addison,rf et al. (1983) ",5.2,15,16,0,0,0,0,0,0,0,0,,15,
2-ethyl-3-methoxypyrazine,C7H10N2O1,025680-58-4,CCc1nccnc1OC,"yamagami,c et al. (1990) ",1.8,7,10,2,1,0,0,0,0,0,0,,10,
"2(n,n-dime)-5(5-no2-2-furfuryl)thiazolone",C10H9N3O4S1,025694-31-9,CN(C)C1=NC(=O)C(=Cc2ccc(N(=O)(=O))o2)S1,"hansch,c & leo,aj (1985) ",1.14,10,9,3,4,1,0,0,0,0,0,,18,
2-(tetradecylamino)ethanol,C16H35N1O1,025737-87-5,CCCCCCCCCCCCCCNCCO,biobyte starlist (2009) ,5.74,16,35,1,1,0,0,0,0,0,0,,18,
2-(2-hydroxyethylamino)benzoic acid,C9H11N1O3,025784-00-3,OCCNc1ccccc1C(O)=O,"hansch,c & leo,aj (1985) ",1.35,9,11,1,3,0,0,0,0,0,0,,13,
"benzoic acid, 2-chloro-, propyl ester",C10H11Cl1O2,025800-28-6,CCCOC(=O)c1ccccc1Cl,sangster (1993) ,3.45,10,11,0,2,0,0,0,1,0,0,,13,
"quinazoline, 2-phenyl-",C14H10N2,025855-20-3,c1ccc(cc1)c2ncc3ccccc3n2,sangster (1993) ,3.42,14,10,2,0,0,0,0,0,0,0,,16,
4-methyl-n-(2-morpholin-4-ylethyl)-6-phenylpyridazin-3-amine,C17H22N4O1,025905-77-5,Cc1cc(nnc1NCCN2CCOCC2)c3ccccc3,"hansch,c et al. (1995) ",2.03,17,22,4,1,0,0,0,0,0,0,,22,
"3-[(5-methyl-1,3,4-thiadiazol-2-yl)sulfanylmethyl]-8-oxo-7-[[2-(tetrazol-1-yl)acetyl]amino]-5-thia-1-azabicyclo[4.2.0]oct-2-ene-2-carboxylic acid",C14H14N8O4S3,026970-89-8,Cc1sc(SCC2=C(N3C(SC2)C(NC(=O)Cn4cnnn4)C3=O)C(O)=O)nn1,biobyte starlist (2009) ,-0.58,14,14,8,4,3,0,0,0,0,0,,29,
4-(4-aminophenyl)sulfonylphenol,C12H11N1O3S1,025963-47-7,Nc1ccc(cc1)[S](=O)(=O)c2ccc(O)cc2,"altomare,c et al. (1991) ",1.57,12,11,1,3,1,0,0,0,0,0,,17,
1-methoxy-1-methyl-3-[4-(phenylmethoxy)phenyl]urea,C16H18N2O3,025998-87-2,CON(C)C(=O)Nc1ccc(OCc2ccccc2)cc1,"hansch,c & leo,aj (1985) ",3.11,16,18,2,3,0,0,0,0,0,0,,21,
"[3-(phenoxy)phenyl]methyl 2,2-dimethyl-3-(2-methylprop-1-enyl)cyclopropane-1-carboxylate",C23H26O3,026002-80-2,CC(C)=CC1C(C(=O)OCc2cccc(Oc3ccccc3)c2)C1(C)C,"tomlin,c (2003) ",6.01,23,26,0,3,0,0,0,0,0,0,,26,
"n,n-dimethyl-1-thiophen-2-ylmethanamine",C7H11N1S1,026019-17-0,CN(C)Cc1sccc1,"hansch,c & leo,aj (1985) ",1.67,7,11,1,0,1,0,0,0,0,0,,9,
"n,n-dimethyl-2-thiophen-2-ylethanamine",C8H13N1S1,026019-18-1,CN(C)CCc1sccc1,"hansch,c & leo,aj (1985) ",1.99,8,13,1,0,1,0,0,0,0,0,,10,
4-nitrobenzenecarbothioamide,C7H6N2O2S1,026060-30-0,NC(=S)c1ccc(cc1)[N+]([O-])=O,sangster (1994) ,1.75,7,6,2,2,1,0,0,0,0,0,,12,
"cyclopropanecarboxylic acid, 3-(3-methoxy-2-meth",C12H18O4,026074-74-8,CC(=CC1C(C(=O)OC)C1(C)C)C(=O)OC,"nishimura,k et al. (1987) ",2.67,12,18,0,4,0,0,0,0,0,0,,16,
di(propan-2-yloxy)phosphorylsulfanylmethylbenzene,C13H21O3P1S1,026087-47-8,CC(C)O[P](=O)(OC(C)C)SCc1ccccc1,"saito,h et al. (1993) ",3.34,13,21,0,3,1,1,0,0,0,0,,18,
2-(4-propylphenyl)acetic acid,C11H14O2,026114-12-5,CCCc1ccc(CC(O)=O)cc1,sangster (1993) ,3,11,14,0,2,0,0,0,0,0,0,,13,
2-[4-(2-methylbutan-2-yl)phenyl]acetic acid,C13H18O2,026114-14-7,CCC(C)(C)c1ccc(CC(O)=O)cc1,sangster (1994) ,3.48,13,18,0,2,0,0,0,0,0,0,,15,
erythromycylamine,C37H70N2O12,026116-56-3,CC[C@H]1OC(=O)[C@H](C)[C@@H](O[C@H]2C[C@@](C)(OC)[C@@H](O)[C@H](C)O2)[C@H](C)[C@@H](O[C@@H]3O[C@H](C)C[C@@H]([C@H]3O)N(C)C)[C@](C)(O)C[C@@H](C)C(N)[C@H](C)[C@@H](O)[C@]1(C)O,"mcfarland,jw et al. (1997) ",3,37,70,2,12,0,0,0,0,0,0,,51,
2-(4-propoxyphenyl)acetic acid,C11H14O3,026118-57-0,CCCOc1ccc(CC(O)=O)cc1,sangster (1993) ,2.31,11,14,0,3,0,0,0,0,0,0,,14,
"2-amino-9h-pyrido[2,3-b]indole",C11H9N3,026148-68-5,Nc1ccc2c([nH]c3ccccc23)n1,"hansch,c et al. (1995) ",2.6,11,9,3,0,0,0,0,0,0,0,,14,
2-[1-methyl-5-(4-methylbenzoyl)pyrrol-2-yl]acetic acid,C15H15N1O3,026171-23-3,Cn1c(CC(O)=O)ccc1C(=O)c2ccc(C)cc2,sangster (1993) ,2.79,15,15,1,3,0,0,0,0,0,0,,19,
6-chloro-benzazepine,C10H12Cl1N1,026232-35-9,Clc1cccc2NC=CC=Cc12,"hansch,c et al. (1995) ",2.4,10,12,1,0,0,0,0,1,0,0,,12,
(4-isothiocyanatophenyl)-phenylmethanone,C14H9N1O1S1,026328-59-6,O=C(c1ccccc1)c2ccc(cc2)N=C=S,"hansch,c & leo,aj (1985) ",4.88,14,9,1,1,1,0,0,0,0,0,,17,
"n-(cyclopropylmethyl)-2,6-dinitro-n-propyl-4-(trifluoromethyl)aniline",C14H16F3N3O4,not,CCCN(CC1CC1)c2c(cc(cc2[N+]([O-])=O)C(F)(F)F)[N+]([O-])=O,daylight (1999) ,5.44,14,16,3,4,0,0,3,0,0,0,,24,
1-nitro-4-propan-2-yloxybenzene,C9H11N1O3,026455-31-2,CC(C)Oc1ccc(cc1)[N+]([O-])=O,"hansch,c et al. (1995) ",2.8,9,11,1,3,0,0,0,0,0,0,,13,
diethyl (2-methyl-4-methylsulfanylphenyl) phosphate,C12H19O4P1S1,026512-63-0,CCO[P](=O)(OCC)Oc1ccc(SC)cc1C,"hansch,c & leo,aj (1985) ",3.21,12,19,0,4,1,1,0,0,0,0,,18,
"o,o-diet-o(2-cl-4-mesph)phosphorothioate",C11H16Cl1O3P1S2,026512-71-0,CCOP(=S)(Oc1c(Cl)cc(SC)cc1)OCC,"hansch,c & leo,aj (1985) ",4.4,11,16,0,3,2,1,0,1,0,0,,18,
"2-octyl-1,2-thiazol-3-one",C11H19N1O1S1,026530-20-1,CCCCCCCCN1SC=CC1=O,"tomlin,c (1994) ",2.45,11,19,1,1,1,0,0,0,0,0,,14,
4-nitrosothiomorpholine,C4H8N2O1S1,026541-51-5,O=NN1CCSCC1,"hansch,c et al. (1995) ",0.4,4,8,2,1,1,0,0,0,0,0,,8,
"2,4,5,2',4',5'-hexachlorobiphenyl",C12H4Cl6,035065-27-1,Clc1cc(Cl)c(cc1Cl)c2cc(Cl)c(Cl)cc2Cl,"hansch,c et al. (1995) ",7.75,12,4,0,0,0,0,0,6,0,0,,18,
triforine,C10H14Cl6N4O2,026644-46-2,ClC(Cl)(Cl)C(NC=O)N1CCN(CC1)C(NC=O)C(Cl)(Cl)Cl,"tomlin,c (1997) ",2.2,10,14,4,2,0,0,0,6,0,0,,22,
isoflurane,C3H2Cl1F5O1,026675-46-7,FC(F)OC(Cl)C(F)(F)F,"hansch,c et al. (1995) ",2.06,3,2,0,1,0,0,5,1,0,0,,10,
"o=p(oet)(oet)o-2,6-cl-4-smephenyl",C11H15Cl2O4P1S1,026707-54-0,CCOP(=O)(Oc1c(Cl)cc(SC)cc1Cl)OCC,"hansch,c & leo,aj (1985) ",3.72,11,15,0,4,1,1,0,2,0,0,,19,
triarimol (trimidal),C17H12Cl2N2O1,026766-27-8,n1cc(C(O)(c3ccccc3)c2ccc(Cl)cc2Cl)cnc1,"hansch,c et al. (1995) ",2.56,17,12,2,1,0,0,0,2,0,0,,22,
"6-[[2-amino-2-(4-hydroxyphenyl)acetyl]amino]-3,3-dimethyl-7-oxo-4-thia-1-azabicyclo[3.2.0]heptane-2-carboxylic acid",C16H19N3O5S1,026787-78-0,CC1(C)SC2C(NC(=O)C(N)c3ccc(O)cc3)C(=O)N2C1C(O)=O,sangster (1994) ,0.87,16,19,3,5,1,0,0,0,0,0,,25,
oo-diet-o-(3-cl-4-mes ph)phosphate,C11H16Cl1O4P1S1,026798-03-8,CCOP(=O)(Oc1cc(Cl)c(SC)cc1)OCC,"hansch,c & leo,aj (1985) ",2.94,11,16,0,4,1,1,0,1,0,0,,18,
n-ethyl-3-methylbenzamide,C10H13N1O1,026819-07-8,CCNC(=O)c1cccc(C)c1,"suryanarayana,mvs et al. (1991) ",1.32,10,13,1,1,0,0,0,0,0,0,,12,
n-ethyl-4-methylbenzamide,C10H13N1O1,026819-08-9,CCNC(=O)c1ccc(C)cc1,"suryanarayana,mvs et al. (1991) ",1.38,10,13,1,1,0,0,0,0,0,0,,12,
"1-(tert-butylamino)-3-[(4-morpholin-4-yl-1,2,5-thiadiazol-3-yl)oxy]propan-2-ol",C13H24N4O3S1,026839-75-8,CC(C)(C)NCC(O)COc1nsnc1N2CCOCC2,"hansch,c et al. (1995) ",1.83,13,24,4,3,1,0,0,0,0,0,,21,
"3-buten-2-one,4-(3-bromophenyl)-",C10H9Br1O1,026891-02-1,CC(=O)C=Cc1cccc(Br)c1,"yamagami,c et al. (1998) ",3.02,10,9,0,1,0,0,0,0,1,0,,12,
"8-oxo-7-[[2-(tetrazol-1-yl)acetyl]amino]-3-(1,3,4-thiadiazol-2-ylsulfanylmethyl)-5-thia-1-azabicyclo[4.2.0]oct-2-ene-2-carboxylic acid",C13H12N8O4S3,026973-24-0,OC(=O)C1=C(CSC2C(NC(=O)Cn3cnnn3)C(=O)N12)CSc4scnn4,biobyte (1995) ,-0.67,13,12,8,4,3,0,0,0,0,0,,28,
3-(acetyloxymethyl)-7-[(2-bromoacetyl)amino]-8-oxo-5-thia-1-azabicyclo[4.2.0]oct-2-ene-2-carboxylic acid,C12H13Br1N2O6S1,026973-80-8,CC(=O)OCC1=C(N2C(SC1)C(NC(=O)CBr)C2=O)C(O)=O,"hansch,c & leo,aj (1985) ",-0.7,12,13,2,6,1,0,0,0,1,0,,22,
2-(3-hydroxyphenyl)phenol,C12H10O2,026983-52-8,Oc1cccc(c1)c2ccccc2O,"abraham,mh et al. (1994) ",4.06,12,10,0,2,0,0,0,0,0,0,,14,
"n-methyl-7-nitro-2-oxo-5-phenyl-3h-1,4-benzodiazepine-1-carboxamide",C17H14N4O4,027016-91-7,CNC(=O)N1C(=O)CN=C(c2ccccc2)c3cc(ccc13)[N+]([O-])=O,sangster (1994) ,1.76,17,14,4,4,0,0,0,0,0,0,,25,
"5-methylquinazoline-2,4-diamine",C9H10N4,027018-14-0,Cc1cccc2nc(N)nc(N)c12,biobyte starlist (2009) ,1.26,9,10,4,0,0,0,0,0,0,0,,13,
"5-methoxyquinazoline-2,4-diamine",C9H10N4O1,027018-21-9,COc1cccc2nc(N)nc(N)c12,biobyte starlist (2009) ,1.18,9,10,4,1,0,0,0,0,0,0,,14,
2-(4-aminophenyl)sulfonylaniline,C12H12N2O2S1,027147-69-9,Nc1ccc(cc1)[S](=O)(=O)c2ccccc2N,"altomare,c et al. (1991) ",1.56,12,12,2,2,1,0,0,0,0,0,,17,
n-(3-methoxyphenyl)formamide,C8H9N1O2,027153-17-9,COc1cccc(NC=O)c1,"hansch,c & leo,aj (1985) ",1.25,8,9,1,2,0,0,0,0,0,0,,11,
"5-(aziridin-1-yl)-n,n-dimethyl-2,4-dinitrobenzamide",C11H12N4O5,027221-03-0,CN(C)C(=O)c1cc(N2CC2)c(cc1[N+]([O-])=O)[N+]([O-])=O,"hansch,c & leo,aj (1985) ",0.63,11,12,4,5,0,0,0,0,0,0,,20,
4-fluoro-n-[2-[4-(2-methoxyphenyl)piperazin-1-yl]ethyl]benzamide,C20H24F1N3O2,027227-14-1,COc1ccccc1N2CCN(CCNC(=O)c3ccc(F)cc3)CC2,"kuipers,w et al. (1997) ",2.5,20,24,3,2,0,0,1,0,0,0,,26,
"3-buten-2-one,4-(4-oacetyl-phenyl)-",C12H12O3,027297-83-2,CC(=O)C=Cc1ccc(OC(=O)(C))cc1,"yamagami,c et al. (1998) ",1.63,12,12,0,3,0,0,0,0,0,0,,15,
1-(2-cyclopropylphenoxy)-3-(propan-2-ylamino)propan-2-ol,C15H23N1O2,027325-36-6,CC(C)NCC(O)COc1ccccc1C2CC2,"recanatini,m (1992) ",3.07,15,23,1,2,0,0,0,0,0,0,,18,
tetrachlorophthalide,C8H2Cl4O2,027355-22-2,Clc1ccc2C(=O)OC(Cl)(Cl)c2c1Cl,"hansch,c et al. (1995) ",3.2,8,2,0,2,0,0,0,4,0,0,,14,
"2,5-dimethyl-1,3,4-thiadiazole",C4H6N2S1,027464-82-0,Cc1sc(C)nn1,"hansch,c & leo,aj (1985) ",0.03,4,6,2,0,1,0,0,0,0,0,,7,
n-(p-cl ph)-3-n'-piperidinoacetamide,C13H17Cl1N2O1,027471-82-5,C1CCN(CC(=O)Nc2ccc(Cl)cc2)CC1,"hansch,c & leo,aj (1985) ",3.34,13,17,2,1,0,0,0,1,0,0,,17,
"pyrimidine, 5-ethoxy-",C6H8N2O1,027522-25-4,CCOc1cncnc1,"yamagami,c et al. (1990) ",0.56,6,8,2,1,0,0,0,0,0,0,,9,
2-(2-oxopropylamino)benzamide,C10H12N2O2,027545-04-6,CC(=O)CNc1ccccc1C(N)=O,"hansch,c & leo,aj (1985) ",0.61,10,12,2,2,0,0,0,0,0,0,,14,
"2,4-thiazolidinedione, 3-(1-methylethyl)-5-[(5-n",C11H10N2O5S1,027550-11-4,CC(C)N1C(=O)C(=Cc2ccc(N(=O)(=O))o2)SC1(=O),sangster (1993) ,2.42,11,10,2,5,1,0,0,0,0,0,,19,
"3-prop-2-enoxy-1,2-benzothiazole 1,1-dioxide",C10H9N1O3S1,027605-76-1,C=CCOC1=N[S](=O)(=O)c2ccccc12,biobyte (1995) ,1.4,10,9,1,3,1,0,0,0,0,0,,15,
1-[3-(carbamoyl-nitrosoamino)propyl]-1-nitrosourea,C5H10N6O4,027640-19-3,NC(=O)N(CCCN(N=O)C(N)=O)N=O,"hansch,c & leo,aj (1985) ",-0.3,5,10,6,4,0,0,0,0,0,0,,15,
1-[6-(carbamoyl-nitrosoamino)hexyl]-1-nitrosourea,C8H16N6O4,027640-22-8,NC(=O)N(CCCCCCN(N=O)C(N)=O)N=O,"hansch,c et al. (1995) ",0.58,8,16,6,4,0,0,0,0,0,0,,18,
"5-ethyl-5-methyl-1,3-diazinane-2,4,6-trione",C7H10N2O3,027653-63-0,CCC1(C)C(=O)NC(=O)NC1=O,"prankerd,rj & mckeown,rh (1992) ",0.08,7,10,2,3,0,0,0,0,0,0,,12,
2-[(3-nitrophenyl)amino]benzoic acid,C13H10N2O4,027693-70-5,OC(=O)c1ccccc1Nc2cccc(c2)[N+]([O-])=O,"hansch,c & leo,aj (1985) ",4.57,13,10,2,4,0,0,0,0,0,0,,19,
2-[(3-methoxyphenyl)amino]benzoic acid,C14H13N1O3,027693-73-8,COc1cccc(Nc2ccccc2C(O)=O)c1,"terada,h et al. (1987) ",4.31,14,13,1,3,0,0,0,0,0,0,,18,
2-[(3-acetylphenyl)amino]benzoic acid,C15H13N1O3,027696-28-2,CC(=O)c1cccc(Nc2ccccc2C(O)=O)c1,sangster (1993) ,4.07,15,13,1,3,0,0,0,0,0,0,,19,
"3-methoxy-n,n-dimethylpyridazin-4-amine",C7H11N3O1,038717-24-7,COc1nnccc1N(C)C,"hansch,c & leo,aj (1985) ",0.9,7,11,3,1,0,0,0,0,0,0,,11,
"benzeneacetamide, n-(3,4-dichlorophenyl)-",C14H11Cl2N1O1,027816-82-6,Clc1ccc(NC(=O)Cc2ccccc2)cc1Cl,pomona (1987) ,4.47,14,11,1,1,0,0,0,2,0,0,,18,
"1,2,4,5-tetrabromo-3-(2,3,5,6-tetrabromophenyl)benzene",C12H2Br8,027858-07-7,Brc1cc(Br)c(Br)c(c1Br)c2c(Br)c(Br)cc(Br)c2Br,"norris, jm et al (1973) ",5.5,12,2,0,0,0,0,0,0,8,0,,20,
4-hexylpyridine,C11H17N1,027876-24-0,CCCCCCc1ccncc1,"hansch,c et al. (1995) ",4.35,11,17,1,0,0,0,0,0,0,0,,12,
3-(acetyloxymethyl)-7-[(2-hydroxy-2-phenylacetyl)amino]-8-oxo-5-thia-1-azabicyclo[4.2.0]oct-2-ene-2-carboxylic acid,C18H18N2O7S1,027910-26-5,CC(=O)OCC1=C(N2C(SC1)C(NC(=O)C(O)c3ccccc3)C2=O)C(O)=O,"hansch,c & leo,aj (1985) ",-0.44,18,18,2,7,1,0,0,0,0,0,,28,
1-(4-methoxyphenyl)-2-phenylsulfonylethanone,C15H14O4S1,027918-37-2,COc1ccc(cc1)C(=O)C[S](=O)(=O)c2ccccc2,"wang,l et al. (1993) ",2.18,15,14,0,4,1,0,0,0,0,0,,20,
"2,2',4,4'-tetrachlorodiphenyl ether",C12H6Cl4O1,028076-73-5,Clc1ccc(Oc2ccc(Cl)cc2Cl)c(Cl)c1,"kurz,j & ballschmiter,k (1999) ",5.95,12,6,0,1,0,0,0,4,0,0,,17,
diphenyl (3-propan-2-ylphenyl) phosphate,C21H21O4P1,028108-99-8,CC(C)c1cccc(O[P](=O)(Oc2ccccc2)Oc3ccccc3)c1,"saeger,vw et al. (1979) ",5.31,21,21,0,4,0,1,0,0,0,0,,26,
"acetic acid, 2,6-dichlorophenyl ester",C8H6Cl2O2,028165-71-1,CC(=O)Oc1c(Cl)cccc1Cl,"sotomatsu,t et al. (1993) ",2.94,8,6,0,2,0,0,0,2,0,0,,12,
"3-tridecylbenzene-1,2-diol",C19H32O2,028165-91-5,CCCCCCCCCCCCCc1cccc(O)c1O,"itokawa,h et al. (1989) ",7.75,19,32,0,2,0,0,0,0,0,0,,21,
1-(amino-propylsulfanylphosphoryl)oxypropane,C6H16N1O2P1S1,028167-45-5,CCCO[P](N)(=O)SCCC,"hansch,c & leo,aj (1985) ",1.23,6,16,1,2,1,1,0,0,0,0,,11,
n-(methoxy-methylsulfanylphosphoryl)methanamine,C3H10N1O2P1S1,028167-49-9,CN[P](=O)(OC)SC,"hansch,c & leo,aj (1985) ",-0.07,3,10,1,2,1,1,0,0,0,0,,8,
3-(3-fluorophenyl)-1-methoxy-1-methylurea,C9H11F1N2O2,028170-26-5,CON(C)C(=O)Nc1cccc(F)c1,"hansch,c & leo,aj (1985) ",1.68,9,11,2,2,0,0,1,0,0,0,,14,
"3-(3-methoxyphenyl)-1,1-dimethylurea",C10H14N2O2,028170-54-9,COc1cccc(NC(=O)N(C)C)c1,"briggs,gg (1981) ",1.73,10,14,2,2,0,0,0,0,0,0,,14,
"2,6-difluorophenol",C6H4F2O1,028177-48-2,Oc1c(F)cccc1F,"sotomatsu,t et al. (1993) ",1.96,6,4,0,1,0,0,2,0,0,0,,9,
n-[3-acetyl-4-[2-hydroxy-3-(propan-2-ylamino)propoxy]phenyl]acetamide,C16H24N2O4,028197-69-5,CC(C)NCC(O)COc1ccc(NC(C)=O)cc1C(C)=O,"recanatini,m (1992) ",0.94,16,24,2,4,0,0,0,0,0,0,,22,
methyl n-(4-ethylphenyl)carbamate,C10H13N1O2,028238-55-3,CCc1ccc(NC(=O)OC)cc1,"takahashi,k et al. (1988) ",2.72,10,13,1,2,0,0,0,0,0,0,,13,
thiobencarb,C12H16Cl1N1O1S1,028249-77-6,CCN(CC)C(=O)SCc1ccc(Cl)cc1,"hansch,c et al. (1995) ",3.4,12,16,1,1,1,0,0,1,0,0,,16,
"1-methyl-4-phenyl-3,6-dihydro-2h-pyridine",C12H15N1,028289-54-5,CN1CCC(=CC1)c2ccccc2,"hansch,c et al. (1995) ",2.71,12,15,1,0,0,0,0,0,0,0,,13,
2-(cyanomethylamino)benzoic acid,C9H8N2O2,028354-19-0,OC(=O)c1ccccc1NCC#N,"hansch,c & leo,aj (1985) ",1.8,9,8,2,2,0,0,0,0,0,0,,13,
2-[(2-methoxyphenyl)amino]acetonitrile,C9H10N2O1,028354-25-8,COc1ccccc1NCC#N,"hansch,c & leo,aj (1985) ",1.3,9,10,2,1,0,0,0,0,0,0,,12,
"2,6-dichlorodiphenyl ether",C12H8Cl2O1,028419-69-4,Clc2cccc(Cl)c2Oc1ccccc1,"kurz,j & ballschmiter,k (1999) ",4.64,12,8,0,1,0,0,0,2,0,0,,15,
1h-pyrazol-4-amine,C3H5N3,028466-26-4,Nc1c[nH]nc1,"hansch,c et al. (1995) ",-1.09,3,5,3,0,0,0,0,0,0,0,,6,
"glycine, n-[1-oxo-5-(1h-purin-6-ylthio)pentyl]-,",C15H21N5O3S1,028610-09-5,CCCOC(=O)CNC(=O)CCCCSC1=NC=NC2=C1NC=N2,sangster (1993) ,1.37,15,21,5,3,1,0,0,0,0,0,,24,
pyrimidine-4-carboxamide,C5H5N3O1,028648-86-4,NC(=O)c1ccncn1,"yamagami,c et al. (1990) ",-0.68,5,5,3,1,0,0,0,0,0,0,,9,
"1-methyl-3-(2-methylpropyl)-7h-purine-2,6-dione",C10H14N4O2,028822-58-4,CC(C)CN1C(=O)N(C)C(=O)c2[nH]cnc12,pomona (1987) ,1.15,10,14,4,2,0,0,0,0,0,0,,16,
3-phenylsulfanylpyridine,C11H9N1S1,028856-77-1,S(c1ccccc1)c2cccnc2,"hansch,c et al. (1995) ",3.15,11,9,1,0,1,0,0,0,0,0,,13,
"brucine, dihydro-",C23H28N2O4,028879-93-8,COc1cc2N3C4C5C(CC3=O)OCCC6CN7CCC4(C7CC56)c2cc1OC,"hansch,c et al. (1995) ",0.84,23,28,2,4,0,0,0,0,0,0,,29,
triazolam,C17H12Cl2N4,028911-01-5,Cc1nnc2CN=C(c3ccccc3Cl)c4cc(Cl)ccc4n12,biobyte (1995) ,2.42,17,12,4,0,0,0,0,2,0,0,,23,
"2-methyl-5-(phenylmethylsulfanyl)-1,3,4-oxadiazole",C10H10N2O1S1,028915-24-4,Cc1oc(SCc2ccccc2)nn1,pomona (1987) ,1.74,10,10,2,1,1,0,0,0,0,0,,14,
alprazolam,C17H13Cl1N4,028981-97-7,Cc1nnc2CN=C(c3ccccc3)c4cc(Cl)ccc4n12,biobyte (1995) ,2.12,17,13,4,0,0,0,0,1,0,0,,22,
4-methyl-n-phenylbenzohydrazide,C14H14N2O1,029027-76-7,Cc1ccc(cc1)C(=O)N(N)c2ccccc2,"britto,mm et al. (1999) ",3,14,14,2,1,0,0,0,0,0,0,,17,
"2-(4-tert-butylphenoxy)-6-(hydroxymethyl)oxane-3,4,5-triol",C16H24O6,029074-04-2,CC(C)(C)c1ccc(OC2OC(CO)C(O)C(O)C2O)cc1,"hansch,c & leo,aj (1985) ",1.18,16,24,0,6,0,0,0,0,0,0,,22,
"n',n'-diethyl-2,4-dinitro-6-(trifluoromethyl)benzene-1,3-diamine",C11H13F3N4O4,029091-05-2,CCN(CC)c1c(cc(c(N)c1[N+]([O-])=O)C(F)(F)F)[N+]([O-])=O,"tomlin,c (2003) ",4.3,11,13,4,4,0,0,3,0,0,0,,22,
"2,4-dinitro-n',n'-dipropyl-6-(trifluoromethyl)benzene-1,3-diamine",C13H17F3N4O4,029091-21-2,CCCN(CCC)c1c(cc(c(N)c1[N+]([O-])=O)C(F)(F)F)[N+]([O-])=O,"tomlin,c (1997); unstated ph ",4.1,13,17,4,4,0,0,3,0,0,0,,24,
n-[2-[4-(cyclohexylcarbamoylsulfamoyl)phenyl]ethyl]-5-methylpyrazine-2-carboxamide,C21H27N5O4S1,029094-61-9,Cc1cnc(cn1)C(=O)NCCc2ccc(cc2)[S](=O)(=O)NC(=O)NC3CCCCC3,"hansch,c et al. (1995) ",1.91,21,27,5,4,1,0,0,0,0,0,,31,
benzoximate,C18H18Cl1N1O5,029104-30-1,CCN(OC(=O)c1ccccc1)C(=O)c2c(OC)ccc(Cl)c2OC,"saito,h et al. (1993) ",3.73,18,18,1,5,0,0,0,1,0,0,,25,
2-[4-[2-hydroxy-3-(propan-2-ylamino)propoxy]phenyl]acetamide,C14H22N2O3,029122-68-7,CC(C)NCC(O)COc1ccc(CC(N)=O)cc1,"hansch,c et al. (1995) ",0.16,14,22,2,3,0,0,0,0,0,0,,19,
"(2-acetylphenyl) n,n-dimethylcarbamate",C11H13N1O3,029230-99-7,CN(C)C(=O)Oc1ccccc1C(C)=O,"hansch,c & leo,aj (1985) ",0.93,11,13,1,3,0,0,0,0,0,0,,15,
"4-dimethoxyphosphinothioyloxy-n,n-diethyl-6-methylpyrimidin-2-amine",C11H20N3O3P1S1,029232-93-7,CCN(CC)c1nc(C)cc(O[P](=S)(OC)OC)n1,"hansch,c et al. (1995) ",4.2,11,20,3,3,1,1,0,0,0,0,,19,
2-iodopyridine-4-carbohydrazide,C6H6I1N3O1,029247-87-8,NNC(=O)c1ccnc(I)c1,sangster (1993) ,0.52,6,6,3,1,0,0,0,0,0,1,,11,
2'-chlorobenzoguanamine,C9H8Cl1N5,029366-77-6,Clc2ccccc2c1nc(N)nc(N)n1,"hansch,c et al. (1995) ",1.19,9,8,5,0,0,0,0,1,0,0,,15,
2-bromobenzohydrazide,C7H7Br1N2O1,029418-67-5,NNC(=O)c1ccccc1Br,"hansch,c et al. (1995) ",0.26,7,7,2,1,0,0,0,0,1,0,,11,
"1-(methoxymethyl)-7-nitro-5-phenyl-3h-1,4-benzodiazepin-2-one",C17H15N3O4,029442-58-8,COCN1C(=O)CN=C(c2ccccc2)c3cc(ccc13)[N+]([O-])=O,"hansch,c & leo,aj (1985) ",2.05,17,15,3,4,0,0,0,0,0,0,,24,
"14-benzodiazp2-on,1-meome-5(ph)-7cl",C17H15Cl1N2O2,029442-59-9,COCN1C(=O)CN=C(c3ccccc3)c2c1ccc(Cl)c2,"hansch,c & leo,aj (1985) ",2.86,17,15,2,2,0,0,0,1,0,0,,22,
"14-benzodiazp2-on,1-meome-5(2clph)7cl",C17H14Cl2N2O2,029442-60-2,COCN1C(=O)CN=C(c3c(Cl)cccc3)c2c1ccc(Cl)c2,"hansch,c & leo,aj (1985) ",3.23,17,14,2,2,0,0,0,2,0,0,,23,
"1,4-benzdazepin-2-on-1-mesme-5-ph-7-cl",C17H15Cl1N2O1S1,029442-82-8,CSCN1C(=O)CN=C(c3ccccc3)c2c1ccc(Cl)c2,"hansch,c & leo,aj (1985) ",3.32,17,15,2,1,1,0,0,1,0,0,,22,
"4-ethyl-5-propyl-1,2-dithiole-3-thione",C8H12S3,029507-66-2,CCCC1=C(CC)C(=S)SS1,"bona,m et al. (1995) ",3.76,8,12,0,0,3,0,0,0,0,0,,11,
8-dimethylaminoquinoline,C11H12N2,029526-42-9,CN(C)c1cccc2cccnc12,"hansch,c et al. (1995) ",2.73,11,12,2,0,0,0,0,0,0,0,,13,
1-(2-dimethylaminoethyl)-3-(3-methoxyphenyl)imidazolidin-2-one,C14H21N3O2,029529-66-6,COc1cccc(c1)N2CCN(CCN(C)C)C2=O,biobyte (1995) ,1.76,14,21,3,2,0,0,0,0,0,0,,19,
"n,n,n',n'-tetramethylpyridazine-3,6-diamine",C8H14N4,029604-73-7,CN(C)c1ccc(nn1)N(C)C,"hansch,c & leo,aj (1985) ",0.99,8,14,4,0,0,0,0,0,0,0,,12,
"2,3,6-trimethylpyridine",C8H11N1,029611-84-5,Cc1ccc(C)c(C)n1,"barratt,md (1996) ",2.05,8,11,1,0,0,0,0,0,0,0,,9,