Names,Formula,CAS No,SMILES,Reference,Exp logp,C,H,N,O,S,P,F,Cl,Br,I,,,
n-(2-ethylphenyl)acetamide,C10H13N1O1,033098-65-6,CCc1ccccc1NC(C)=O,"nakagawa,y et al. (1992) ",1.32,10,13,1,1,0,0,0,0,0,0,,12,
"n-(2,6-dibromophenyl)acetamide",C8H7Br2N1O1,033098-80-5,CC(=O)Nc1c(Br)cccc1Br,"nakagawa,y et al. (1992) ",1.53,8,7,1,1,0,0,0,0,2,0,,12,
"1,4,7,10,13-pentaoxacyclopentadecane",C10H20O5,033100-27-5,C1COCCOCCOCCOCCO1,"hansch,c et al. (1995) ",-0.48,10,20,0,5,0,0,0,0,0,0,,15,
3-methyladamantan-1-amine,C11H19N1,033103-93-4,CC12CC3CC(C1)CC(N)(C3)C2,"hansch,c & leo,aj (1985) ",3.01,11,19,1,0,0,0,0,0,0,0,,12,
ethyl 3-(1-phenylethyl)imidazole-4-carboxylate,C14H16N2O2,033125-97-2,CCOC(=O)c1cncn1C(C)c2ccccc2,pomona (1987) ,3.05,14,16,2,2,0,0,0,0,0,0,,18,
2-(4-bromophenylmethyl)-5-chlorobenzimidazole,C14H10Br1Cl1N2,033138-16-8,C1=CC(=CC=C1CC2=NC3=C(N2)C=C(C=C3)Cl)Br,"ertepinar,h et al. (1995) ",5.38,14,10,2,0,0,0,0,1,1,0,,18,
"2,6-dichlorobiphenyl",C12H8Cl2,033146-45-1,Clc1cccc(Cl)c1c2ccccc2,"hansch,c & leo,aj (1985) ",4.98,12,8,0,0,0,0,0,2,0,0,,14,
3-dimethylaminobenzamide,C9H12N2O1,033225-17-1,CN(C)c1cccc(c1)C(N)=O,"hansch,c & leo,aj (1985) ",0.95,9,12,2,1,0,0,0,0,0,0,,12,
(4-amylphenyl)amine,C11H17N1,033228-44-3,CCCCCc1ccc(N)cc1,"hansch,c et al. (1995) ",3.39,11,17,1,0,0,0,0,0,0,0,,12,
4-hexylaniline,C12H19N1,033228-45-4,CCCCCCc1ccc(N)cc1,"schultz,tw et al. (1989) ",4.21,12,19,1,0,0,0,0,0,0,0,,13,
2-[[4-(bis(2-hydroxyethyl)amino)-2-nitrophenyl]amino]ethanol,C12H19N3O5,033229-34-4,OCCNc1ccc(cc1[N+]([O-])=O)N(CCO)CCO,iarc (1993) ,1.7,12,19,3,5,0,0,0,0,0,0,,20,
"2,4-dichlorobiphenyl",C12H8Cl2,033284-50-3,Clc1ccc(c(Cl)c1)c2ccccc2,sangster (1993) ,5.16,12,8,0,0,0,0,0,2,0,0,,14,
"3,3',5,5'-tetrachlorobiphenyl",C12H6Cl4,033284-52-5,Clc1cc(Cl)cc(c1)c2cc(Cl)cc(Cl)c2,sangster (1994) ,6.6,12,6,0,0,0,0,0,4,0,0,,16,
"2,3,4,5-pcb",C12H6Cl4,033284-53-6,c1(c2ccccc2)cc(Cl)c(Cl)c(Cl)c1Cl,"hansch,c et al. (1995) ",6.41,12,6,0,0,0,0,0,4,0,0,,16,
"[5-(2-dimethylaminoethyl)-2-(4-methoxyphenyl)-4-oxo-2,3-dihydro-1,5-benzothiazepin-3-yl] acetate",C22H26N2O4S1,033286-22-5,COc1ccc(cc1)C2Sc3ccccc3N(CCN(C)C)C(=O)C2OC(C)=O,"hansch,c & leo,aj (1985) ",2.7,22,26,2,4,1,0,0,0,0,0,,29,
"5-(phenylmethyl)-1,3-thiazolidine-2,4-dione",C10H9N1O2S1,033321-31-2,O=C1NC(=O)C(Cc2ccccc2)S1,"lipinski,ca et al. (1991) ",1.98,10,9,1,2,1,0,0,0,0,0,,14,
4-dimethylaminodiazenylbenzamide,C9H12N4O1,033330-91-5,CN(C)N=Nc1ccc(cc1)C(N)=O,"hansch,c et al. (1995) ",1.2,9,12,4,1,0,0,0,0,0,0,,14,
2-chloro-6-amino-pyrazine,C4H4Cl1N3,033332-28-4,Nc1cncc(Cl)n1,"yamagami,c & takao,n (1991) ",0.95,4,4,3,0,0,0,0,1,0,0,,8,
"pyrazinamine, 5-chloro-",C4H4Cl1N3,033332-29-5,Nc1cnc(Cl)cn1,"yamagami,c et al. (1990) ",0.67,4,4,3,0,0,0,0,1,0,0,,8,
2-chloro-6-methoxy-pyrazine,C5H5Cl1N2O1,033332-30-8,COc1cncc(Cl)n1,"yamagami,c & takao,n (1991) ",1.65,5,5,2,1,0,0,0,1,0,0,,9,
"pyrazine, 2-chloro-5-methoxy-",C5H5Cl1N2O1,033332-31-9,COc1cnc(Cl)cn1,"yamagami,c et al. (1991) ",1.52,5,5,2,1,0,0,0,1,0,0,,9,
"1,2-bis(2-methoxyethoxy)benzene",C12H18O4,033332-53-5,COCCOc1ccccc1OCCOC,"hansch,c & leo,aj (1985) ",1.12,12,18,0,4,0,0,0,0,0,0,,16,
"5-ethyl-5-propyl-1,3-diazinane-2,4,6-trione",C9H14N2O3,033376-25-9,CCCC1(CC)C(=O)NC(=O)NC1=O,"hansch,c et al. (1995) ",0.66,9,14,2,3,0,0,0,0,0,0,,14,
6-bromo-4-phenyl-1h-quinazolin-2-one,C14H9Br1N2O1,033443-53-7,Brc1ccc2NC(=O)N=C(c3ccccc3)c2c1,"hansch,c & leo,aj (1985) ",2.71,14,9,2,1,0,0,0,0,1,0,,18,
"methyl 6-methyl-4-oxo-6,7,8,9-tetrahydropyrido[1,6-a]pyrimidine-3-carboxylate",C11H14N2O3,033484-38-7,COC(=O)C1=CN=C2CCCC(C)N2C1=O,sangster (1994) ,0.16,11,14,2,3,0,0,0,0,0,0,,16,
1-i-pentachlorocyclohexane,C6H6Cl5I1,033489-28-0,C1(Cl)C(Cl)C(Cl)C(I)C(Cl)C1Cl,"hansch,c & leo,aj (1985) ",3.96,6,6,0,0,0,0,0,5,0,1,,12,
dimethoxy-(phenoxy)-sulfanylidenephosphorane,C8H11O3P1S1,033576-92-0,CO[P](=S)(OC)Oc1ccccc1,"debruijn,j & hermens,j (1991) ",3.03,8,11,0,3,1,1,0,0,0,0,,13,
"4-(2,4,6-trimethylphenyl)sulfonylaniline",C15H17N1O2S1,033597-78-3,Cc1cc(C)c(c(C)c1)[S](=O)(=O)c2ccc(N)cc2,"altomare,c et al. (1991) ",3.06,15,17,1,2,1,0,0,0,0,0,,19,
1-decanoylpyrrolidin-2-one,C14H25N1O2,033602-03-8,CCCCCCCCCC(=O)N1CCCC1=O,"hansch,c et al. (1995) ",4.33,14,25,1,2,0,0,0,0,0,0,,17,
6-cl-4-ketochroman-2-carboxlic acid,C10H7Cl1O4,033607-91-9,c1c(Cl)cc2c(OC(C(=O)(O))CC2(=O))c1,"hansch,c & leo,aj (1985) ",1.77,10,7,0,4,0,0,0,1,0,0,,15,
"n-butan-2-yl-4-tert-butyl-2,6-dinitroaniline",C14H21N3O4,033629-47-9,CCC(C)Nc1c(cc(cc1[N+]([O-])=O)C(C)(C)C)[N+]([O-])=O,"tomlin,c (1997) ",4.93,14,21,3,4,0,0,0,0,0,0,,21,
"1,2,4-triazin-5(4h)-one, 4-amino-6-(1,1-dimethyl",C8H14N4O1,033665-20-2,CC1N(N)C(=O)C(C(C)(C)C)=NN=1,sangster (1994) ,1.03,8,14,4,1,0,0,0,0,0,0,,13,
"2h-thieno[2,3-e]-1,4-diazepin-2-one, 5-(2-chloro",C16H15Cl1N2O1S1,033671-46-4,N3CC(=O)N(C)c2sc(CC)cc2C=3c1c(Cl)cccc1,"maruyama,t et al. (1992) ",3.18,16,15,2,1,1,0,0,1,0,0,,21,
"n-tert-butyl-n'-ethyl-6-methoxy-1,3,5-triazine-2,4-diamine",C10H19N5O1,033693-04-8,CCNc1nc(NC(C)(C)C)nc(OC)n1,"finizio,a et al. (1991) ",3.1,10,19,5,1,0,0,0,0,0,0,,16,
"3,5-dichloroanisole",C7H6Cl2O1,033719-74-3,COc1cc(Cl)cc(Cl)c1,"hansch,c et al. (1995) ",3.8,7,6,0,1,0,0,0,2,0,0,,10,
n-(2-methoxy-5-nitrophenyl)acetamide,C9H10N2O4,033721-54-9,COc1ccc(cc1NC(C)=O)[N+]([O-])=O,"furst,w & becher,m (1990) ",1.6,9,10,2,4,0,0,0,0,0,0,,15,
2-acetamidobenzamide,C9H10N2O2,033809-77-7,CC(=O)Nc1ccccc1C(N)=O,sangster (1993) ,0.32,9,10,2,2,0,0,0,0,0,0,,13,
"2-butenoic acid, 2-methyl-, 9-(acetyloxy)- ester",C22H28O7,033854-15-8,CC=C(C)C(=O)OC1C=C(C)C(O)CC(OC(=O)(C))C(C)=CC2OC(=O)C(=C)C12,sangster (1993) ,1.16,22,28,0,7,0,0,0,0,0,0,,29,
bis(phenoxy)phosphorylhydrazine,C12H13N2O3P1,033862-44-1,NN[P](=O)(Oc1ccccc1)Oc2ccccc2,"hansch,c et al. (1995) ",1.51,12,13,2,3,0,1,0,0,0,0,,18,
"pyrazine, 2,6-diethoxy-",C8H12N2O2,033870-85-8,CCOc1cncc(OCC)n1,"yamagami,c et al. (1991) ",2.55,8,12,2,2,0,0,0,0,0,0,,12,
"2,6-difluoropyrazine",C4H2F2N2,033873-09-5,Fc1cncc(F)n1,"yamagami,c et al. (1990) ",0.74,4,2,2,0,0,0,2,0,0,0,,8,
2-chloro-6-fluoro-pyrazine,C4H2Cl1F1N2,033873-10-8,Fc1cncc(Cl)n1,"yamagami,c & takao,n (1991) ",1.16,4,2,2,0,0,0,1,1,0,0,,8,
"2,2',4,4',6,6'-pcb",C12H4Cl6,033979-03-2,c1(c2c(Cl)cc(Cl)cc2Cl)c(Cl)cc(Cl)cc1Cl,"hansch,c et al. (1995) ",7.55,12,4,0,0,0,0,0,6,0,0,,18,
"2-oh-4,6-bis(ethylamino)-s-triazine",C7H13N5O1,033979-07-6,c1(NCC)nc(O)nc(NCC)n1,biobyte starlist (2009) ,2.29,7,13,5,1,0,0,0,0,0,0,,13,
"1-(5-tert-butyl-1,3,4-thiadiazol-2-yl)-1,3-dimethylurea",C9H16N4O1S1,034014-18-1,CNC(=O)N(C)c1sc(nn1)C(C)(C)C,biobyte (1995) ,1.79,9,16,4,1,1,0,0,0,0,0,,15,
2-[(2-acetamidoacetyl)amino]-3-phenylpropanamide,C13H17N3O3,034017-16-8,CC(=O)NCC(=O)NC(Cc1ccccc1)C(N)=O,"hansch,c et al. (1995) ",-0.56,13,17,3,3,0,0,0,0,0,0,,19,
methyl 4-(4-aminophenyl)sulfonylbenzoate,C14H13N1O4S1,078297-66-2,COC(=O)c1ccc(cc1)[S](=O)(=O)c2ccc(N)cc2,biobyte starlist (2009) ,2.25,14,13,1,4,1,0,0,0,0,0,,20,
"2-methyl-1,1,4-trioxo-n-(1,3-thiazol-2-yl)-3h-benzo[e]thiazine-3-carboxamide",C13H11N3O4S2,029152-10-1,CN1C(C(=O)Nc2sccn2)C(=O)c3ccccc3[S]1(=O)=O,"hansch,c & leo,aj (1985) ",1.64,13,11,3,4,2,0,0,0,0,0,,22,
"7-amino-5-(2-fluorophenyl)-1-methyl-3h-1,4-benzodiazepin-2-one",C16H14F1N3O1,034084-50-9,CN1C(=O)CN=C(c2ccccc2F)c3cc(N)ccc13,"hansch,c & leo,aj (1985) ",1.3,16,14,3,1,0,0,1,0,0,0,,21,
methyl 2-phenylsulfonylacetate,C9H10O4S1,034097-60-4,COC(=O)C[S](=O)(=O)c1ccccc1,"he,y et al. (1995b) ",0.93,9,10,0,4,1,0,0,0,0,0,,14,
"1,1-dimethyl-3-(4-propan-2-ylphenyl)urea",C12H18N2O1,034123-59-6,CC(C)c1ccc(NC(=O)N(C)C)cc1,"hansch,c et al. (1995) ",2.87,12,18,2,1,0,0,0,0,0,0,,15,
"2-butenoic acid, 2-[(acetyloxy)methyl]- derivati",C22H26O8,034175-79-6,CC12CC(OC(=O)C(COC(=O)(C))=CC)C3C(C=C(C)C(O)(C=C1)O2)OC(=O)C3=C,sangster (1993) ,1.19,22,26,0,8,0,0,0,0,0,0,,30,
"grayanotoxane-5,6,7,9,10,14,16-heptol, 2,3-epoxy",C20H32O8,034206-60-5,O1C2C(C)(C)C3(O)C(O)C(O)C45CC(C)(O)C(CCC4(O)C(C)(O)C3C12)C5O,"hansch,c et al. (1995) ",-0.57,20,32,0,8,0,0,0,0,0,0,,28,
"2-(3,5-ditert-butylphenoxy)-6-(hydroxymethyl)oxane-3,4,5-triol",C20H32O6,034213-80-4,CC(C)(C)c1cc(OC2OC(CO)C(O)C(O)C2O)cc(c1)C(C)(C)C,"hansch,c & leo,aj (1985) ",2.73,20,32,0,6,0,0,0,0,0,0,,26,
2-methyl-b-nitrostyrene,C9H9N1O2,034222-71-4,Cc1ccccc1C=CN(=O)(=O),"hansch,c et al. (1995) ",2.63,9,9,1,2,0,0,0,0,0,0,,12,
methyl pyridazine-4-carboxylate,C6H6N2O2,034231-77-1,COC(=O)c1ccnnc1,"yamagami,c et al. (1990) ",-0.27,6,6,2,2,0,0,0,0,0,0,,10,
"2-phenyl-n,n-di(propan-2-yl)acetamide",C14H21N1O1,034251-46-2,CC(C)N(C(C)C)C(=O)Cc1ccccc1,"suryanarayana,mvs et al. (1991) ",3.1,14,21,1,1,0,0,0,0,0,0,,16,
methyl pyrimidine-5-carboxylate,C6H6N2O2,034253-01-5,COC(=O)c1cncnc1,"yamagami,c et al. (1990) ",0.03,6,6,2,2,0,0,0,0,0,0,,10,
methyl pyridazine-3-carboxylate,C6H6N2O2,034253-02-6,COC(=O)c1cccnn1,"yamagami,c et al. (1990) ",-0.43,6,6,2,2,0,0,0,0,0,0,,10,
methyl pyrimidine-2-carboxylate,C6H6N2O2,034253-03-7,COC(=O)c1ncccn1,"yamagami,c et al. (1990) ",-0.71,6,6,2,2,0,0,0,0,0,0,,10,
acetochlor,C14H20Cl1N1O2,034256-82-1,CCOCN(C(=O)CCl)c1c(C)cccc1CC,"tomlin,c (1994) ",3.03,14,20,1,2,0,0,0,1,0,0,,18,
plenolin,C15H20O4,not,C[C@@H]1C[C@H]2OC(=O)[C@@H](C)[C@H]2[C@H](O)[C@@]3(C)[C@H]1C=CC3=O,biobyte (1995) ,0.53,15,20,0,4,0,0,0,0,0,0,,19,
3-(4-aminophenyl)sulfonylaniline,C12H12N2O2S1,034262-32-3,Nc1ccc(cc1)[S](=O)(=O)c2cccc(N)c2,"altomare,c et al. (1991) ",1.03,12,12,2,2,1,0,0,0,0,0,,17,
"dimethyl 2-[[4-[(2,4-diaminopteridin-6-yl)methyl-methylamino]benzoyl]amino]pentanedioate",C22H26N8O5,034378-65-9,COC(=O)CCC(NC(=O)c1ccc(cc1)N(C)Cc2cnc3nc(N)nc(N)c3n2)C(=O)OC,"hansch,c et al. (1995) ",0.54,22,26,8,5,0,0,0,0,0,0,,35,
2-(4-fluorosulfonylphenoxy)acetic acid,C8H7F1O5S1,034380-54-6,OC(=O)COc1ccc(cc1)[S](F)(=O)=O,"hansch,c et al. (1995) ",1.82,8,7,0,5,1,0,1,0,0,0,,15,
"2,3-dihydro-1,4-benzodioxine-2-carboxylic acid",C9H8O4,034385-93-8,OC(=O)C1COc2ccccc2O1,"hansch,c et al. (1995) ",1.4,9,8,0,4,0,0,0,0,0,0,,13,
"5-cl-2,3-dihydrobenzofuran-2-acid",C9H7Cl1O3,034385-94-9,Clc1ccc2c(CC(C(=O)O)O2)c1,"hansch,c et al. (1995) ",2.11,9,7,0,3,0,0,0,1,0,0,,13,
n1-(4-dimeaminoph)sulfanilamide,C14H17N3O2S1,034392-61-5,CN(C)c1ccc(NS(=O)(=O)c2ccc(N)cc2)cc1,"hansch,c et al. (1995) ",1.57,14,17,3,2,1,0,0,0,0,0,,20,
n1-(2-cl-3-pyridyl)sulfanilamide,C11H10Cl1N3O2S1,034392-79-5,c1cnc(Cl)c(NS(=O)(=O)c2ccc(N)cc2)c1,"hansch,c et al. (1995) ",1.58,11,10,3,2,1,0,0,1,0,0,,18,
7-[(2-hydroxy-2-phenylacetyl)amino]-3-[(1-methyltetrazol-5-yl)sulfanylmethyl]-8-oxo-5-thia-1-azabicyclo[4.2.0]oct-2-ene-2-carboxylic acid,C18H18N6O5S2,034444-01-4,Cn1nnnc1SCC2=C(N3C(SC2)C(NC(=O)C(O)c4ccccc4)C3=O)C(O)=O,sangster (1994) ,0.5,18,18,6,5,2,0,0,0,0,0,,31,
orbencarb,C12H16Cl1N1O1S1,034622-58-7,CCN(CC)C(=O)SCc1ccccc1Cl,"tomlin,c (1994) ",3.43,12,16,1,1,1,0,0,1,0,0,,16,
prothiophos,C11H15Cl2O2P1S2,034643-46-4,CCCS[P](=S)(OCC)Oc1ccc(Cl)cc1Cl,"tomlin,c (1994) ",5.67,11,15,0,2,2,1,0,2,0,0,,18,
fenclofenac,C14H10Cl2O3,034645-84-6,OC(=O)Cc1ccccc1Oc2ccc(Cl)cc2Cl,"hansch,c et al. (1995) ",4.8,14,10,0,3,0,0,0,2,0,0,,19,
"methyl 2-(1,3-thiazol-4-yl)benzimidazole-1-carboxylate",C12H9N3O2S1,034675-53-1,COC(=O)N1C2=CC=CC=C2N=C1C3=CSC=N3,"nielsen,ls et al. (1992) ",2.05,12,9,3,2,1,0,0,0,0,0,,18,
butocarboxim,C7H14N2O2S1,034681-10-2,CNC(=O)O\N=C(\C)C(C)SC,"tomlin,c (1997) ",1.1,7,14,2,2,1,0,0,0,0,0,,12,
"3,3-dimethyl-7-oxo-6-[(2-phenyl-2-sulfoacetyl)amino]-4-thia-1-azabicyclo[3.2.0]heptane-2-carboxylic acid",C16H18N2O7S2,041744-40-5,CC1(C)SC2C(NC(=O)C(c3ccccc3)[S](O)(=O)=O)C(=O)N2C1C(O)=O,sangster (1993) ,0.59,16,18,2,7,2,0,0,0,0,0,,27,
"n,n-dimethyl-3-(10-oxidophenothiazin-10-ium-10-yl)propan-1-amine",C17H20N2O1S1,034781-59-4,CN(C)CCC[N+]1([O-])c2ccccc2Sc3ccccc13,biobyte (1995) ,1.9,17,20,2,1,1,0,0,0,0,0,,21,
1-pyridin-2-ylpiperazine,C9H13N3,034803-66-2,C1CN(CCN1)c2ccccn2,"caccia,s et al. (1985) ",0.74,9,13,3,0,0,0,0,0,0,0,,12,
"19-norpregna-1,3,5(10)-trien-20-yne-3,17-diol, 1",C21H26O3,034816-55-2,C42(C)C(O)(C#C)CCC4C1C(c3ccc(O)cc3CC1)C(OC)C2,sangster (1993) ,3.01,21,26,0,3,0,0,0,0,0,0,,24,
3-hydroxy-1-methyl-5-pyridin-3-ylpyrrolidin-2-one,C10H12N2O2,037096-14-3,CN1C(CC(O)C1=O)c2cccnc2,"li,ny & gorrod,jw (1992) ",-1.48,10,12,2,2,0,0,0,0,0,0,,14,
3-methyl-1-[2-[(5-methyl-1h-imidazol-4-yl)methylsulfanyl]ethyl]thiourea,C9H16N4S2,034839-70-8,CNC(=S)NCCSCc1nc[nH]c1C,"hansch,c & leo,aj (1985) ",0.5,9,16,4,0,2,0,0,0,0,0,,15,
quinoline-3-carbonitrile,C10H6N2,034846-64-5,N#Cc1cnc2ccccc2c1,"hansch,c et al. (1995) ",1.57,10,6,2,0,0,0,0,0,0,0,,12,
1-methoxy-1-methyl-3-(4-propan-2-ylphenyl)urea,C12H18N2O2,034861-40-0,CON(C)C(=O)Nc1ccc(cc1)C(C)C,"hansch,c & leo,aj (1985) ",2.95,12,18,2,2,0,0,0,0,0,0,,16,
"2,5-dichlorobiphenyl",C12H8Cl2,034883-39-1,Clc1ccc(Cl)c(c1)c2ccccc2,sangster (1993) ,5.1,12,8,0,0,0,0,0,2,0,0,,14,
"3,5-dichlorobiphenyl",C12H8Cl2,034883-41-5,Clc1cc(Cl)cc(c1)c2ccccc2,sangster (1993) ,5.41,12,8,0,0,0,0,0,2,0,0,,14,
"2,4'-dichlorobiphenyl",C12H8Cl2,034883-43-7,Clc1ccc(cc1)c2ccccc2Cl,sangster (1993) ,5.09,12,8,0,0,0,0,0,2,0,0,,14,
2-[3-(tert-butylamino)-2-hydroxypropoxy]benzonitrile,C14H20N2O2,034915-68-9,CC(C)(C)NCC(O)COc1ccccc1C#N,"mannhold,r et al. (1990) ",1.6,14,20,2,2,0,0,0,0,0,0,,18,
2-[2-[3-(tert-butylamino)-2-hydroxypropoxy]phenoxy]-n-methylacetamide,C16H26N2O4,034919-98-7,CNC(=O)COc1ccccc1OCC(O)CNC(C)(C)C,"recanatini,m (1992) ",1.36,16,26,2,4,0,0,0,0,0,0,,22,
"5-(2-fluorophenyl)-7-iodo-1-methyl-3h-1,4-benzodiazepin-2-one",C16H12F1I1N2O1,034932-78-0,CN1C(=O)CN=C(c2ccccc2F)c3cc(I)ccc13,"hansch,c & leo,aj (1985) ",3.14,16,12,2,1,0,0,1,0,0,1,,21,
"4-piperidinol, 4-(4-chlorophenyl)-1-[3-[(4-fluor",C20H24F1N1O2S1,034933-71-6,C(CSc3ccc(F)cc3)CN1CCC(O)(c2ccc(O)cc2)CC1,sangster (1993) ,4.17,20,24,1,2,1,0,1,0,0,0,,25,
buriamide,C9H16N4S1,034970-69-9,CNC(=S)NCCCCC1=CN=CN1,"hansch,c et al. (1995) ",0.39,9,16,4,0,1,0,0,0,0,0,,14,
4-pyridin-2-ylbutan-1-amine,C9H14N2,034974-00-0,NCCCCc1ccccn1,"hansch,c et al. (1995) ",0.86,9,14,2,0,0,0,0,0,0,0,,11,
3-methyl-4-nitroso-2-phenylmorpholine,C11H14N2O2,034993-08-3,CC1C(OCCN1N=O)c2ccccc2,"hansch,c et al. (1995) ",2.09,11,14,2,2,0,0,0,0,0,0,,15,
"2,2',3,4,4',5'-hexachlorobiphenyl",C12H4Cl6,035065-28-2,Clc1ccc(c(Cl)c1Cl)c2cc(Cl)c(Cl)cc2Cl,"rapaport,ra & eisenreich,sj (1984) ",7.44,12,4,0,0,0,0,0,6,0,0,,18,
3-acetylbenzenesulfonamide,C8H9N1O3S1,035203-88-4,CC(=O)c1cccc(c1)[S](N)(=O)=O,"carotti,a et al. (1989) ",0.21,8,9,1,3,1,0,0,0,0,0,,13,
quinoline-8-sulfonamide,C9H8N2O2S1,035203-91-9,N[S](=O)(=O)c1cccc2cccnc12,"hansch,c et al. (1995) ",0.42,9,8,2,2,1,0,0,0,0,0,,14,
phenylsulfonylurea,C7H8N2O3S1,035207-08-0,NC(=O)N[S](=O)(=O)c1ccccc1,"cloux,jl et al. (1988) ",0.28,7,8,2,3,1,0,0,0,0,0,,13,
4-(2-dimethylaminoethoxy)-2-methyl-5-propan-2-ylphenol,C14H23N1O2,035231-36-8,CC(C)c1cc(O)c(C)cc1OCCN(C)C,"dallet,p et al. (1985) ",2.93,14,23,1,2,0,0,0,0,0,0,,17,
"2,2-dimethyl-n-(phenylmethyl)-n-propan-2-ylpropanamide",C15H23N1O1,035256-85-0,CC(C)N(Cc1ccccc1)C(=O)C(C)(C)C,"tomlin,c (1997) ",3,15,23,1,1,0,0,0,0,0,0,,17,
diflubenzuron,C14H9Cl1F2N2O2,035367-38-5,Fc1cccc(F)c1C(=O)NC(=O)Nc2ccc(Cl)cc2,"sotomatsu,t et al. (1987) ",3.88,14,9,2,2,0,0,2,1,0,0,,21,
1-(2-methoxyphenyl)piperazine,C11H16N2O1,035386-24-4,COc1ccccc1N2CCNCC2,"caccia,s et al. (1985) ",1.67,11,16,2,1,0,0,0,0,0,0,,14,
ethoxy-(4-methylsulfanylphenoxy)-propylsulfanyl-sulfanylidenephosphorane,C12H19O2P1S3,035400-43-2,CCCS[P](=S)(OCC)Oc1ccc(SC)cc1,"tomlin,c (1997) ",5.48,12,19,0,2,3,1,0,0,0,0,,18,
methyl n-(4-ethoxyphenyl)carbamate,C10H13N1O3,035407-50-2,CCOc1ccc(NC(=O)OC)cc1,"takahashi,k et al. (1988) ",2.15,10,13,1,3,0,0,0,0,0,0,,14,
"(5a-ethenyl-3,9-dimethylidene-2,8-dioxo-3a,4,5,6,9a,9b-hexahydrofuro[2,3-f]isochromen-4-yl) 2-methylprop-2-enoate",C19H20O6,035413-85-5,CC(=C)C(=O)OC1CC2(COC(=O)C(=C)C2C3OC(=O)C(=C)C13)C=C,sangster (1994) ,1.56,19,20,0,6,0,0,0,0,0,0,,25,
(3-methoxyphenyl)methyl acetate,C10H12O3,035480-26-3,COc1cccc(COC(C)=O)c1,"hansch,c et al. (1995) ",2.02,10,12,0,3,0,0,0,0,0,0,,13,
"1-(4-nitrophenyl)pyrrolidine-2,5-dione",C10H8N2O4,035488-92-7,[O-][N+](=O)c1ccc(cc1)N2C(=O)CCC2=O,"hansch,c et al. (1995) ",0.46,10,8,2,4,0,0,0,0,0,0,,16,
quinoline-8-carbonitrile,C10H6N2,035509-27-4,N#Cc1cccc2cccnc12,"hansch,c et al. (1995) ",1.39,10,6,2,0,0,0,0,0,0,0,,12,
3-dimethylaminoacrylonitrile,C5H8N2,035520-41-3,CN(C)C=CC#N,"hansch,c et al. (1995) ",0.47,5,8,2,0,0,0,0,0,0,0,,7,
imazalil base,C14H14Cl2N2O1,035554-44-0,c1(C(OCC=C)Cn2ccnc2)ccc(Cl)cc1Cl,"tomlin,c (2003) ",3.82,14,14,2,1,0,0,0,2,0,0,,19,
azamethiphos,C9H10Cl1N2O5P1S1,035575-96-3,CO[P](=O)(OC)SCN1C(=O)Oc2cc(Cl)cnc12,"tomlin,c (1997) ",1.05,9,10,2,5,1,1,0,1,0,0,,19,
3-(carbamoyloxymethyl)-7-methoxy-8-oxo-7-[(2-thiophen-2-ylacetyl)amino]-5-thia-1-azabicyclo[4.2.0]oct-2-ene-2-carboxylic acid,C16H17N3O7S2,035607-66-0,COC1(NC(=O)Cc2sccc2)C3SCC(=C(N3C1=O)C(O)=O)COC(N)=O,sangster (1993) ,-0.02,16,17,3,7,2,0,0,0,0,0,,28,
"2,5-dimethyl-n-phenylpyrrolidine-1-carboxamide",C13H18N2O1,not,CC1CCC(C)N1C(=O)Nc2ccccc2,pomona (1987) ,2.33,13,18,2,1,0,0,0,0,0,0,,16,
"4,5-dimethyldithiol-3-one",C5H6O1S2,035659-69-9,CC1=C(C)C(=O)SS1,"bona,m et al. (1995) ",1.73,5,6,0,1,2,0,0,0,0,0,,8,
5-iodo-1-methyl-4-nitroimidazole,C4H4I1N3O2,035681-63-1,Cn1cnc(c1I)[N+]([O-])=O,"gupta,rp et al. (1985) ",1,4,4,3,2,0,0,0,0,0,1,,10,
4-methoxy-2-methyl-5-nitro-1h-imidazole,C5H7N3O3,035687-42-4,COc1nc(C)[nH]c1[N+]([O-])=O,"suwinski,j et al. (1985) ",0.21,5,7,3,3,0,0,0,0,0,0,,11,
"5-methoxy-1,2-dimethyl-4-nitroimidazole",C6H9N3O3,035687-44-6,COc1n(C)c(C)nc1[N+]([O-])=O,biobyte (1995) ,-0.09,6,9,3,3,0,0,0,0,0,0,,12,
"2,4,6-trichlorobiphenyl",C12H7Cl3,035693-92-6,Clc1cc(Cl)c(c(Cl)c1)c2ccccc2,"hansch,c et al. (1995) ",5.47,12,7,0,0,0,0,0,3,0,0,,15,
"2,2',5,5'-tetrachlorobiphenyl",C12H6Cl4,035693-99-3,Clc1ccc(Cl)c(c1)c2cc(Cl)ccc2Cl,"hansch,c et al. (1995) ",6.09,12,6,0,0,0,0,0,4,0,0,,16,
"2,2',3,3',5,5'-hexachlorobiphenyl",C12H4Cl6,035694-04-3,Clc1cc(Cl)c(Cl)c(c1)c2cc(Cl)cc(Cl)c2Cl,biobyte (1995) ,7.07,12,4,0,0,0,0,0,6,0,0,,18,
"2,2',3,4,4'-pcb",C12H4Cl6,035694-06-5,c1(c2ccc(Cl)cc2Cl)cc(Cl)c(Cl)c(Cl)c1Cl,"hansch,c et al. (1995) ",7.44,12,4,0,0,0,0,0,6,0,0,,18,
"2,2',3,3',4,4',5,5'-octachlorobiphenyl",C12H2Cl8,035694-08-7,Clc1cc(c(Cl)c(Cl)c1Cl)c2cc(Cl)c(Cl)c(Cl)c2Cl,biobyte (1995) ,8.68,12,2,0,0,0,0,0,8,0,0,,20,
n-(4-cyanophenyl)acetamide,C9H8N2O1,035704-19-9,CC(=O)Nc1ccc(cc1)C#N,pomona (1987) ,1.37,9,8,2,1,0,0,0,0,0,0,,12,
n-(4-methoxyphenyl)-n-methylacetamide,C10H13N1O2,035813-38-8,COc1ccc(cc1)N(C)C(C)=O,"hansch,c & leo,aj (1985) ",0.72,10,13,1,2,0,0,0,0,0,0,,13,
heptachlorodibenzo-p-dioxin,C12H1Cl7O2,037871-00-4,Clc1cc2Oc3c(Cl)c(Cl)c(Cl)c(Cl)c3Oc2c(Cl)c1Cl,"shiu,wy et al. (1988) ",8,12,1,0,2,0,0,0,7,0,0,,21,
rosaramicin,C31H51N1O9,035834-26-5,CCC1OC(=O)CC(O)C(C)C(OC2OC(C)CC(C2O)N(C)C)C(CC=O)CC(C)C(=O)/C=C/C3(C)OC3C1C,"mcfarland,jw et al. (1997) ",2.19,31,51,1,9,0,0,0,0,0,0,,41,
maytansine,C34H46Cl1N3O10,035846-53-8,CO[C@@H]1\C=C\C=C(/C)Cc2cc(OC)c(Cl)c(c2)N(C)C(=O)C[C@H](OC(=O)[C@H](C)N(C)C(C)=O)[C@]3(C)O[C@H]3[C@H](C)[C@@H]4C[C@@]1(O)NC(=O)O4,"hansch,c & leo,aj (1985) ",1.99,34,46,3,10,0,0,0,1,0,0,,48,
"4-(4-aminophenyl)sulfonylbenzene-1,3-diamine",C12H13N3O2S1,035880-91-2,Nc1ccc(cc1)[S](=O)(=O)c2ccc(N)cc2N,"altomare,c et al. (1991) ",0.38,12,13,3,2,1,0,0,0,0,0,,18,
2-(4-cyclohexylphenyl)acetic acid,C14H18O2,035889-00-0,OC(=O)Cc1ccc(cc1)C2CCCCC2,sangster (1994) ,3.91,14,18,0,2,0,0,0,0,0,0,,16,
"6-ethyl-4,5,7,8-tetrahydro-[1,3]oxazolo[5,4-d]azepin-2-amine",C9H15N3O1,036067-73-9,CCN1CCc2oc(N)nc2CC1,sangster (1994) ,0.05,9,15,3,1,0,0,0,0,0,0,,13,
"pyrazinecarbonitrile, 5-chloro-",C5H2Cl1N3,036070-75-4,Clc1cnc(cn1)C#N,"yamagami,c et al. (1991) ",0.92,5,2,3,0,0,0,0,1,0,0,,9,
2-chloro-6-conh2-pyrazine,C5H4Cl1N3O1,036070-79-8,Clc1cncc(C(=O)(N))n1,"yamagami,c & takao,n (1991) ",0.28,5,4,3,1,0,0,0,1,0,0,,10,
"1,2,3,4,6-pentachlorodibenzodioxin",C12H3Cl5O2,067028-19-7,Clc1cccc2Oc3c(Cl)c(Cl)c(Cl)c(Cl)c3Oc12,biobyte (1995) ,6.3,12,3,0,2,0,0,0,5,0,0,,19,
5(33dime-1-triazeno)imdazl-4-cooet,C8H13N5O2,036137-88-9,CCOC(=O)C1=C(N=CN1)N=NN(C)C,"hansch,c & leo,aj (1985) ",0.44,8,13,5,2,0,0,0,0,0,0,,15,
n-quinolin-7-ylacetamide,C11H10N2O1,036164-42-8,CC(=O)Nc1ccc2cccnc2c1,"hansch,c et al. (1995) ",1.55,11,10,2,1,0,0,0,0,0,0,,14,