Names,Formula,CAS No,SMILES,Reference,Exp logp,C,H,N,O,S,P,F,Cl,Br,I,,,
"2-nitrobenzene-1,3-diol",C6H5N1O4,000601-89-8,Oc1cccc(O)c1[N+]([O-])=O,"hansch,c et al. (1995) ",1.56,6,5,1,4,0,0,0,0,0,0,,11,
9-nitroanthracene,C14H9N1O2,000602-60-8,[O-][N+](=O)c1c2ccccc2cc3ccccc13,"debnath,ak & hansch,c (1992) ",4.78,14,9,1,2,0,0,0,0,0,0,,17,
5-nitroacenaphthene,C12H9N1O2,000602-87-9,[O-][N+](=O)c1ccc2CCc3cccc1c23,"debnath,ak et al. (1992) ",3.85,12,9,1,2,0,0,0,0,0,0,,15,
"7-(2-hydroxypropyl)-1,3-dimethylpurine-2,6-dione",C10H14N4O3,000603-00-9,CC(O)Cn1cnc2N(C)C(=O)N(C)C(=O)c12,sangster (1994) ,-0.77,10,14,4,3,0,0,0,0,0,0,,17,
3-nitrophthalic acid,C8H5N1O6,000603-11-2,OC(=O)c1cccc(c1C(O)=O)[N+]([O-])=O,"hansch,c et al. (1995) ",0.75,8,5,1,6,0,0,0,0,0,0,,15,
"n,n-di(phenyl)aniline",C18H15N1,000603-34-9,c1ccc(cc1)N(c2ccccc2)c3ccccc3,"hansch,c et al. (1995) ",5.74,18,15,1,0,0,0,0,0,0,0,,19,
tri(phenyl)phosphane,C18H15P1,000603-35-0,c1ccc(cc1)P(c2ccccc2)c3ccccc3,"hansch,c et al. (1995) ",5.69,18,15,0,0,0,1,0,0,0,0,,19,
1-methylindole,C9H9N1,000603-76-9,Cn1ccc2ccccc12,"hansch,c et al. (1995) ",2.72,9,9,1,0,0,0,0,0,0,0,,10,
4-chloro-1-naphthol,C10H7Cl1O1,000604-44-4,Oc1ccc(Cl)c2ccccc12,"hansch,c et al. (1995) ",3.94,10,7,0,1,0,0,0,1,0,0,,12,
"[2,3,5-triacetyloxy-6-(acetyloxymethyl)oxan-4-yl] acetate",C16H22O11,000604-68-2,CC(=O)OCC1OC(OC(C)=O)C(OC(C)=O)C(OC(C)=O)C1OC(C)=O,"hansch,c et al. (1995) ",0.63,16,22,0,11,0,0,0,0,0,0,,27,
oxazepam,C15H11Cl1N2O2,000604-75-1,OC1N=C(c2ccccc2)c3cc(Cl)ccc3NC1=O,"hansch,c et al. (1995) ",2.24,15,11,2,2,0,0,0,1,0,0,,20,
"dipropan-2-yl benzene-1,2-dicarboxylate",C14H18O4,000605-45-8,CC(C)OC(=O)c1ccccc1C(=O)OC(C)C,"hansch,c et al. (1995) ",2.83,14,18,0,4,0,0,0,0,0,0,,18,
"1,5-dinitronaphthalene",C10H6N2O4,000605-71-0,[O-][N+](=O)c1cccc2c1cccc2[N+]([O-])=O,"debnath,ak et al. (1992) ",2.58,10,6,2,4,0,0,0,0,0,0,,16,
"6-methylnaphthalene-1,4-dione",C11H8O2,000605-93-6,Cc1ccc2C(=O)C=CC(=O)c2c1,"hansch,c et al. (1995) ",2.1,11,8,0,2,0,0,0,0,0,0,,13,
"2,3-dimethoxy-5-methylcyclohexa-2,5-diene-1,4-dione",C9H10O4,000605-94-7,COC1=C(OC)C(=O)C(=CC1=O)C,"rich,pr (1990) ",0.8,9,10,0,4,0,0,0,0,0,0,,13,
"2-methyl-1,3-dinitrobenzene",C7H6N2O4,000606-20-2,Cc1c(cccc1[N+]([O-])=O)[N+]([O-])=O,"nakagawa,y et al. (1992) ",2.1,7,6,2,4,0,0,0,0,0,0,,13,
"indene-1,3-dione",C9H6O2,000606-23-5,O=C1CC(=O)c2ccccc12,"hansch,c et al. (1995) ",0.61,9,6,0,2,0,0,0,0,0,0,,11,
naphthalene-1-sulfonamide,C10H9N1O2S1,000606-25-7,N[S](=O)(=O)c1cccc2ccccc12,"alcorn,cr et al. (1993) ",1.55,10,9,1,2,1,0,0,0,0,0,,14,
2-nitrobenzohydrazide,C7H7N3O3,000606-26-8,NNC(=O)c1ccccc1[N+]([O-])=O,"hansch,c et al. (1995) ",-0.54,7,7,3,3,0,0,0,0,0,0,,13,
methyl 2-nitrobenzoate,C8H7N1O4,000606-27-9,COC(=O)c1ccccc1[N+]([O-])=O,"sotomatsu,t et al. (1993) ",1.66,8,7,1,4,0,0,0,0,0,0,,13,
methyl 2-(benzoyl)benzoate,C15H12O3,000606-28-0,COC(=O)c1ccccc1C(=O)c2ccccc2,chemicals inspection and testing institu (1992) ,2.7,15,12,0,3,0,0,0,0,0,0,,18,
"1,3-dinitronaphthalene",C10H6N2O4,000606-37-1,[O-][N+](=O)c1cc2ccccc2c(c1)[N+]([O-])=O,"debnath,ak et al. (1992) ",2.83,10,6,2,4,0,0,0,0,0,0,,16,
1-methylquinolin-2-one,C10H9N1O1,000606-43-9,CN1C(=O)C=Cc2ccccc12,"hansch,c et al. (1995) ",1.45,10,9,1,1,0,0,0,0,0,0,,12,
methyl 2-methoxybenzoate,C9H10O3,000606-45-1,COC(=O)c1ccccc1OC,"sotomatsu,t et al. (1993) ",2.04,9,10,0,3,0,0,0,0,0,0,,12,
8-nitroquinoline,C9H6N2O2,000607-35-2,[O-][N+](=O)c1cccc2cccnc12,"hansch,c et al. (1995) ",1.4,9,6,2,2,0,0,0,0,0,0,,13,
2-nitro-9h-fluorene,C13H9N1O2,000607-57-8,[O-][N+](=O)c1ccc2c(Cc3ccccc23)c1,"debnath,ak & hansch,c (1992) ",3.37,13,9,1,2,0,0,0,0,0,0,,16,
diethyl 2-(phenylmethyl)propanedioate,C14H18O4,000607-81-8,CCOC(=O)C(Cc1ccccc1)C(=O)OCC,"hansch,c et al. (1995) ",2.76,14,18,0,4,0,0,0,0,0,0,,18,
propyl 2-hydroxybenzoate,C10H12O3,000607-90-9,CCCOC(=O)c1ccccc1O,"korenman,yi & danilov,vn (1990) ",3.8,10,12,0,3,0,0,0,0,0,0,,13,
"1,3,5-tribromo-2-methoxybenzene",C7H5Br3O1,000607-99-8,COc1c(Br)cc(Br)cc1Br,sangster (1993) ,4.48,7,5,0,1,0,0,0,0,3,0,,11,
1h-indol-3-yl acetate,C10H9N1O2,000608-08-2,CC(=O)Oc1c[nH]c2ccccc12,"hansch,c et al. (1995) ",2.01,10,9,1,2,0,0,0,0,0,0,,13,
"2,3-dichloroaniline",C6H5Cl2N1,000608-27-5,Nc1cccc(Cl)c1Cl,sangster (1994) ,2.82,6,5,1,0,0,0,0,2,0,0,,9,
"2,6-dichloroaniline",C6H5Cl2N1,000608-31-1,Nc1c(Cl)cccc1Cl,sangster (1994) ,2.76,6,5,1,0,0,0,0,2,0,0,,9,
"2,6-dibromophenol",C6H4Br2O1,000608-33-3,Oc1c(Br)cccc1Br,"sotomatsu,t et al. (1993) ",3.36,6,4,0,1,0,0,0,0,2,0,,9,
"2,3-dimethylhydroquinone",C8H10O2,000608-43-5,Cc1c(C)c(O)ccc1O,sangster (1994) ,1.36,8,10,0,2,0,0,0,0,0,0,,10,
pentachlorobenzene,C6H1Cl5,000608-93-5,Clc1cc(Cl)c(Cl)c(Cl)c1Cl,"hansch,c et al. (1995) ",5.17,6,1,0,0,0,0,0,5,0,0,,11,
"3,4,5-trichlorophenol",C6H3Cl3O1,000609-19-8,Oc1cc(Cl)c(Cl)c(Cl)c1,"hansch,c et al. (1995) ",4.01,6,3,0,1,0,0,0,3,0,0,,10,
furan-3-carboxamide,C5H5N1O2,000609-35-8,NC(=O)c1cocc1,"hansch,c et al. (1995) ",0.09,5,5,1,2,0,0,0,0,0,0,,8,
furan-2-carboxamide,C5H5N1O2,000609-38-1,NC(=O)c1occc1,"hansch,c et al. (1995) ",-0.11,5,5,1,2,0,0,0,0,0,0,,8,
2-nitrothiophene,C4H3N1O2S1,000609-40-5,[O-][N+](=O)c1sccc1,"hansch,c et al. (1995) ",1.55,4,3,1,2,1,0,0,0,0,0,,8,
2-chlorobenzamide,C7H6Cl1N1O1,000609-66-5,NC(=O)c1ccccc1Cl,"nakagawa,y et al. (1992) ",0.64,7,6,1,1,0,0,0,1,0,0,,10,
"n,n,2-trimethylaniline",C9H13N1,000609-72-3,CN(C)c1ccccc1C,"hansch,c et al. (1995) ",2.85,9,13,1,0,0,0,0,0,0,0,,10,
"2-hydroxy-3,5-dinitrobenzoic acid",C7H4N2O7,000609-99-4,OC(=O)c1cc(cc(c1O)[N+]([O-])=O)[N+]([O-])=O,sangster (1994) ,1.71,7,4,2,7,0,0,0,0,0,0,,16,
"2,3,4-trihydroxybenzoic acid",C7H6O5,000610-02-6,OC(=O)c1ccc(O)c(O)c1O,"hansch,c et al. (1995) ",1.05,7,6,0,5,0,0,0,0,0,0,,12,
2-nitrobenzamide,C7H6N2O3,000610-15-1,NC(=O)c1ccccc1[N+]([O-])=O,"sotomatsu,t et al. (1993) ",-0.12,7,6,2,3,0,0,0,0,0,0,,12,
"4-methyl-1,2-dinitrobenzene",C7H6N2O4,000610-39-9,Cc1ccc(c(c1)[N+]([O-])=O)[N+]([O-])=O,"nakagawa,y et al. (1992) ",2.08,7,6,2,4,0,0,0,0,0,0,,13,
anthracen-1-amine,C14H11N1,000610-49-1,Nc1cccc2cc3ccccc3cc12,"debnath,ak et al. (1992) ",3.69,14,11,1,0,0,0,0,0,0,0,,15,
(2-nitrophenyl) acetate,C8H7N1O4,000610-69-5,CC(=O)Oc1ccccc1[N+]([O-])=O,"hansch,c et al. (1995) ",1.55,8,7,1,4,0,0,0,0,0,0,,13,
methyl o-chlorobenzoate,C8H7Cl1O2,000610-96-8,COC(=O)c1ccccc1Cl,"hansch,c et al. (1995) ",2.38,8,7,0,2,0,0,0,1,0,0,,11,
methyl 2-iodobenzoate,C8H7I1O2,000610-97-9,COC(=O)c1ccccc1I,"sotomatsu,t et al. (1993) ",2.74,8,7,0,2,0,0,0,0,0,1,,11,
1-(2-hydroxyphenyl)propan-1-one,C9H10O2,000610-99-1,CCC(=O)c1ccccc1O,"hansch,c et al. (1995) ",2.54,9,10,0,2,0,0,0,0,0,0,,11,
"2,4-diaminobenzoic acid",C7H8N2O2,000611-03-0,Nc1ccc(c(N)c1)C(O)=O,sangster (1994) ,-0.31,7,8,2,2,0,0,0,0,0,0,,11,
"2,4-dichloronitrobenzene",C6H3Cl2N1O2,000611-06-3,[O-][N+](=O)c1ccc(Cl)cc1Cl,"niimi,aj et al. (1989) ",3.07,6,3,1,2,0,0,0,2,0,0,,11,
methyl furan-2-carboxylate,C6H6O3,000611-13-2,COC(=O)c1occc1,"hansch,c et al. (1995) ",1,6,6,0,3,0,0,0,0,0,0,,9,
1-ethyl-2-methylbenzene,C9H12,000611-14-3,CCc1ccccc1C,"hansch,c et al. (1995) ",3.53,9,12,0,0,0,0,0,0,0,0,,9,
2-hydroxybenzonitrile,C7H5N1O1,000611-20-1,Oc1ccccc1C#N,"hansch,c et al. (1995) ",1.61,7,5,1,1,0,0,0,0,0,0,,9,
"n,2-dimethylaniline",C8H11N1,000611-21-2,CNc1ccccc1C,"hansch,c et al. (1995) ",2.16,8,11,1,0,0,0,0,0,0,0,,9,
8-methylquinoline,C10H9N1,000611-32-5,Cc1cccc2cccnc12,"hansch,c et al. (1995) ",2.6,10,9,1,0,0,0,0,0,0,0,,11,
8-chloroquinoline,C9H6Cl1N1,000611-33-6,Clc1cccc2cccnc12,"hansch,c et al. (1995) ",2.44,9,6,1,0,0,0,0,1,0,0,,11,
quinolin-5-amine,C9H8N2,000611-34-7,Nc1cccc2ncccc12,"hansch,c et al. (1995) ",1.16,9,8,2,0,0,0,0,0,0,0,,11,
"1,7-dimethyl-3h-purine-2,6-dione",C7H8N4O2,not,Cn1cnc2NC(=O)N(C)C(=O)c12,"gaspari,f & bonati,m (1987) ",-0.22,7,8,4,2,0,0,0,0,0,0,,13,
2-methyl-1-phenylpropan-1-one,C10H12O1,000611-70-1,CC(C)C(=O)c1ccccc1,"hansch,c et al. (1995) ",2.73,10,12,0,1,0,0,0,0,0,0,,11,
"n,n-dimethylbenzamide",C9H11N1O1,000611-74-5,CN(C)C(=O)c1ccccc1,"hansch,c et al. (1995) ",0.62,9,11,1,1,0,0,0,0,0,0,,11,
(2-methoxyphenyl)methanol,C8H10O2,000612-16-8,COc1ccccc1CO,"hansch,c et al. (1995) ",1.13,8,10,0,2,0,0,0,0,0,0,,10,
1-ethyl-2-nitrobenzene,C8H9N1O2,000612-22-6,CCc1ccccc1[N+]([O-])=O,chemicals inspection and testing institu (1992) ,2.58,8,9,1,2,0,0,0,0,0,0,,11,
6-chloroquinoline,C9H6Cl1N1,000612-57-7,Clc1ccc2ncccc2c1,"hansch,c et al. (1995) ",2.73,9,6,1,0,0,0,0,1,0,0,,11,
3-methylquinoline,C10H9N1,000612-58-8,Cc1cnc2ccccc2c1,"hansch,c et al. (1995) ",2.53,10,9,1,0,0,0,0,0,0,0,,11,
7-methylquinoline,C10H9N1,000612-60-2,Cc1ccc2cccnc2c1,"hansch,c et al. (1995) ",2.47,10,9,1,0,0,0,0,0,0,0,,11,
2-chloroquinoline,C9H6Cl1N1,000612-62-4,Clc1ccc2ccccc2n1,"hansch,c et al. (1995) ",2.71,9,6,1,0,0,0,0,1,0,0,,11,
2-phenylquinoline,C15H11N1,000612-96-4,c1ccc(cc1)c2ccc3ccccc3n2,"hansch,c et al. (1995) ",3.9,15,11,1,0,0,0,0,0,0,0,,16,
n-phenyl-n-(phenylmethyl)nitrous amide,C13H12N2O1,000612-98-6,O=NN(Cc1ccccc1)c2ccccc2,"hansch,c et al. (1995) ",3.38,13,12,2,1,0,0,0,0,0,0,,16,
2-methylanthracene,C15H12,000613-12-7,Cc1ccc2cc3ccccc3cc2c1,"alcorn,cr et al. (1993) ",5,15,12,0,0,0,0,0,0,0,0,,15,
"9,10-dihydroanthracene",C14H12,000613-31-0,C1c2ccccc2Cc3ccccc13,"hansch,c et al. (1995) ",4.25,14,12,0,0,0,0,0,0,0,0,,14,
1-methyl-4-(4-methylphenyl)benzene,C14H14,000613-33-2,Cc1ccc(cc1)c2ccc(C)cc2,"doucette,wj & andren,aw (1987) ",5.09,14,14,0,0,0,0,0,0,0,0,,14,
6-nitroquinoline,C9H6N2O2,000613-51-4,[O-][N+](=O)c1ccc2ncccc2c1,"hansch,c et al. (1995) ",1.82,9,6,2,2,0,0,0,0,0,0,,13,
(2-methoxyphenyl) acetate,C9H10O3,000613-70-7,COc1ccccc1OC(C)=O,"hansch,c et al. (1995) ",1.38,9,10,0,3,0,0,0,0,0,0,,12,
n-methylbenzamide,C8H9N1O1,000613-93-4,CNC(=O)c1ccccc1,"hansch,c et al. (1995) ",0.86,8,9,1,1,0,0,0,0,0,0,,10,
benzohydrazide,C7H8N2O1,000613-94-5,NNC(=O)c1ccccc1,"hansch,c et al. (1995) ",0.19,7,8,2,1,0,0,0,0,0,0,,10,
n-ethylbenzamide,C9H11N1O1,000614-17-5,CCNC(=O)c1ccccc1,"hansch,c et al. (1995) ",1.28,9,11,1,1,0,0,0,0,0,0,,11,
ethyl pyridine-3-carboxylate,C8H9N1O2,000614-18-6,CCOC(=O)c1cccnc1,"hansch,c et al. (1995) ",1.32,8,9,1,2,0,0,0,0,0,0,,11,
3-amino-3-phenylpropanoic acid,C9H11N1O2,000614-19-7,NC(CC(O)=O)c1ccccc1,"hansch,c et al. (1995) ",-1.4,9,11,1,2,0,0,0,0,0,0,,12,
n-methyl-n-(phenylmethyl)aniline,C14H15N1,000614-30-2,CN(Cc1ccccc1)c2ccccc2,"hansch,c et al. (1995) ",4.22,14,15,1,0,0,0,0,0,0,0,,15,
o-chlorophenoxyacetic acid,C8H7Cl1O3,000614-61-9,ClOC(=O)COc1ccccc1,"hansch,c et al. (1995) ",1.86,8,7,0,3,0,0,0,1,0,0,,12,
2-(2-hydroxyphenyl)acetic acid,C8H8O3,000614-75-5,OC(=O)Cc1ccccc1O,"hansch,c et al. (1995) ",0.85,8,8,0,3,0,0,0,0,0,0,,11,
n-(2-bromophenyl)acetamide,C8H8Br1N1O1,000614-76-6,CC(=O)Nc1ccccc1Br,"nakagawa,y et al. (1992) ",1.34,8,8,1,1,0,0,0,0,1,0,,11,
n-(2-hydroxyphenyl)acetamide,C8H9N1O2,000614-80-2,CC(=O)Nc1ccccc1O,"hansch,c et al. (1995) ",0.72,8,9,1,2,0,0,0,0,0,0,,11,
5-methyl-1h-indole,C9H9N1,000614-96-0,Cc1ccc2[nH]ccc2c1,"hansch,c et al. (1995) ",2.68,9,9,1,0,0,0,0,0,0,0,,10,
ethyl furan-3-carboxylate,C7H8O3,000614-98-2,CCOC(=O)c1cocc1,"hansch,c et al. (1995) ",1.78,7,8,0,3,0,0,0,0,0,0,,10,
ethyl furan-2-carboxylate,C7H8O3,000614-99-3,CCOC(=O)c1occc1,"hansch,c et al. (1995) ",1.52,7,8,0,3,0,0,0,0,0,0,,10,
2-methyl-1h-benzimidazole,C8H8N2,000615-15-6,Cc1[nH]c2ccccc2n1,"hansch,c et al. (1995) ",1.43,8,8,2,0,0,0,0,0,0,0,,10,
"2-methylsulfanyl-1,3-benzothiazole",C8H7N1S2,000615-22-5,CSc1sc2ccccc2n1,"platford,rf (1983) ",3.15,8,7,1,0,2,0,0,0,0,0,,11,
2-bromoaniline,C6H6Br1N1,000615-36-1,Nc1ccccc1Br,"hansch,c et al. (1995) ",2.11,6,6,1,0,0,0,0,0,1,0,,8,
2-iodoaniline,C6H6I1N1,000615-43-0,Nc1ccccc1I,"hansch,c et al. (1995) ",2.32,6,6,1,0,0,0,0,0,0,1,,8,
"2,4-dibromophenol",C6H4Br2O1,000615-58-7,Oc1ccc(Br)cc1Br,"hansch,c et al. (1995) ",3.22,6,4,0,1,0,0,0,0,2,0,,9,
"3,4-dimethylchlorobenzene",C8H9Cl1,000615-60-1,Cc1ccc(Cl)cc1C,"hansch,c et al. (1995) ",3.82,8,9,0,0,0,0,0,1,0,0,,9,
chlorohydroquinone,C6H5Cl1O2,000615-67-8,Oc1ccc(O)c(Cl)c1,"hansch,c et al. (1995) ",1.4,6,5,0,2,0,0,0,1,0,0,,9,
"phenol, 2-chloro-5-methyl-",C7H7Cl1O1,000615-74-7,Cc1ccc(Cl)c(O)c1,chemicals inspection and testing institu (1992) ,2.9,7,7,0,1,0,0,0,1,0,0,,9,
"1-methylpyrimidine-2,4-dione",C5H6N2O2,000615-77-0,CN1C=CC(=O)NC1=O,"hansch,c et al. (1995) ",-1.2,5,6,2,2,0,0,0,0,0,0,,9,
"5-methylimidazolidine-2,4-dione",C4H6N2O2,000616-03-5,CC1NC(=O)NC1=O,sangster (1994) ,-0.91,4,6,2,2,0,0,0,0,0,0,,8,
3-methylthiophene,C5H6S1,000616-44-4,Cc1cscc1,"hansch,c et al. (1995) ",2.34,5,6,0,0,1,0,0,0,0,0,,6,
pyrrolidin-2-one,C4H7N1O1,000616-45-5,O=C1CCCN1,"sasaki,h et al. (1991) ",-0.85,4,7,1,1,0,0,0,0,0,0,,6,
1-methylimidazole,C4H6N2,000616-47-7,Cn1ccnc1,"hansch,c et al. (1995) ",-0.06,4,6,2,0,0,0,0,0,0,0,,6,
"2-diethylamino-n-(2,4,6-trimethylphenyl)acetamide",C15H24N2O1,000616-68-2,CCN(CC)CC(=O)Nc1c(C)cc(C)cc1C,"hansch,c et al. (1995) ",2.41,15,24,2,1,0,0,0,0,0,0,,18,
2-hydroxypentanoic acid,C5H10O3,000617-31-2,CCCC(O)C(O)=O,sangster (1993) ,0.45,5,10,0,3,0,0,0,0,0,0,,8,
furan-2-ylmethanamine,C5H7N1O1,000617-89-0,NCc1occc1,"hansch,c et al. (1995) ",0.37,5,7,1,1,0,0,0,0,0,0,,7,
furan-2-carbonitrile,C5H3N1O1,000617-90-3,N#Cc1occc1,"hansch,c et al. (1995) ",0.96,5,3,1,1,0,0,0,0,0,0,,7,
3-methylbenzamide,C8H9N1O1,000618-47-3,Cc1cccc(c1)C(N)=O,"hansch,c et al. (1995) ",1.18,8,9,1,1,0,0,0,0,0,0,,10,
3-chlorobenzamide,C7H6Cl1N1O1,000618-48-4,NC(=O)c1cccc(Cl)c1,"hansch,c et al. (1995) ",1.51,7,6,1,1,0,0,0,1,0,0,,10,
3-hydroxybenzamide,C7H7N1O2,000618-49-5,NC(=O)c1cccc(O)c1,"hansch,c et al. (1995) ",0.39,7,7,1,2,0,0,0,0,0,0,,10,
3-iodobenzoic acid,C7H5I1O2,000618-51-9,OC(=O)c1cccc(I)c1,"hansch,c et al. (1995) ",3.13,7,5,0,2,0,0,0,0,0,1,,10,
"benzene, 1,3-dichloro-5-nitro-",C6H3Cl2N1O2,000618-62-2,[O-][N+](=O)c1cc(Cl)cc(Cl)c1,"niimi,aj et al. (1989) ",3.09,6,3,1,2,0,0,0,2,0,0,,11,
"2,6-dichloro-4-nitrophenol",C6H3Cl2N1O3,000618-80-4,Oc1c(Cl)cc(cc1Cl)[N+]([O-])=O,"hansch,c et al. (1995) ",2.94,6,3,1,3,0,0,0,2,0,0,,12,
"3,5-dinitroaniline",C6H5N3O4,000618-87-1,Nc1cc(cc(c1)[N+]([O-])=O)[N+]([O-])=O,"hansch,c et al. (1995) ",1.89,6,5,3,4,0,0,0,0,0,0,,13,
3-nitrobenzohydrazide,C7H7N3O3,000618-94-0,NNC(=O)c1cccc(c1)[N+]([O-])=O,"hansch,c et al. (1995) ",0.23,7,7,3,3,0,0,0,0,0,0,,13,
methyl 3-nitrobenzoate,C8H7N1O4,000618-95-1,COC(=O)c1cccc(c1)[N+]([O-])=O,"sotomatsu,t et al. (1993) ",1.89,8,7,1,4,0,0,0,0,0,0,,13,
ethyl 3-nitrobenzoate,C9H9N1O4,000618-98-4,CCOC(=O)c1cccc(c1)[N+]([O-])=O,"hansch,c et al. (1995) ",2.35,9,9,1,4,0,0,0,0,0,0,,14,
2-methyl-5-prop-1-en-2-ylcyclohexan-1-ol,C10H18O1,000619-01-2,CC1CCC(CC1O)C(C)=C,"griffin,s et al. (1999) ",3.21,10,18,0,1,0,0,0,0,0,0,,11,
"3,4-diaminobenzoic acid",C7H8N2O2,000619-05-6,Nc1ccc(cc1N)C(O)=O,sangster (1994) ,0.13,7,8,2,2,0,0,0,0,0,0,,11,
2-amino-4-nitrobenzoic acid,C7H6N2O4,000619-17-0,Nc1cc(ccc1C(O)=O)[N+]([O-])=O,"hansch,c et al. (1995) ",1.91,7,6,2,4,0,0,0,0,0,0,,13,
3-nitrobenzonitrile,C7H4N2O2,000619-24-9,[O-][N+](=O)c1cccc(c1)C#N,"hansch,c et al. (1995) ",1.17,7,4,2,2,0,0,0,0,0,0,,11,
methyl 4-bromobenzoate,C8H7Br1O2,000619-42-1,COC(=O)c1ccc(Br)cc1,"sotomatsu,t et al. (1993) ",2.95,8,7,0,2,0,0,0,0,1,0,,11,
methyl 4-aminobenzoate,C8H9N1O2,000619-45-4,COC(=O)c1ccc(N)cc1,sangster (1993) ,1.37,8,9,1,2,0,0,0,0,0,0,,11,
methyl 4-nitrobenzoate,C8H7N1O4,000619-50-1,COC(=O)c1ccc(cc1)[N+]([O-])=O,"sotomatsu,t et al. (1993) ",1.89,8,7,1,4,0,0,0,0,0,0,,13,
4-methylbenzamide,C8H9N1O1,000619-55-6,Cc1ccc(cc1)C(N)=O,"hansch,c et al. (1995) ",1.18,8,9,1,1,0,0,0,0,0,0,,10,
4-chlorobenzamide,C7H6Cl1N1O1,000619-56-7,NC(=O)c1ccc(Cl)cc1,"hansch,c et al. (1995) ",1.55,7,6,1,1,0,0,0,1,0,0,,10,
4-hydroxybenzamide,C7H7N1O2,000619-57-8,NC(=O)c1ccc(O)cc1,"hansch,c et al. (1995) ",0.33,7,7,1,2,0,0,0,0,0,0,,10,
4-iodobenzoic acid,C7H5I1O2,000619-58-9,OC(=O)c1ccc(I)cc1,"hansch,c et al. (1995) ",3.02,7,5,0,2,0,0,0,0,0,1,,10,
4-ethylbenzoic acid,C9H10O2,000619-64-7,CCc1ccc(cc1)C(O)=O,"da,yz et al. (1992) ",2.89,9,10,0,2,0,0,0,0,0,0,,11,
4-cyanobenzoic acid,C8H5N1O2,000619-65-8,OC(=O)c1ccc(cc1)C#N,"hansch,c et al. (1995) ",1.56,8,5,1,2,0,0,0,0,0,0,,11,
4-formylbenzoic acid,C8H6O3,000619-66-9,OC(=O)c1ccc(C=O)cc1,"da,yz et al. (1992) ",1.76,8,6,0,3,0,0,0,0,0,0,,11,
4-nitrobenzonitrile,C7H4N2O2,000619-72-7,[O-][N+](=O)c1ccc(cc1)C#N,"hansch,c et al. (1995) ",1.19,7,4,2,2,0,0,0,0,0,0,,11,
(4-nitrophenyl)methanol,C7H7N1O3,000619-73-8,OCc1ccc(cc1)[N+]([O-])=O,"hansch,c et al. (1995) ",1.26,7,7,1,3,0,0,0,0,0,0,,11,
4-propan-2-ylbenzamide,C10H13N1O1,000619-76-1,CC(C)c1ccc(cc1)C(N)=O,"hansch,c et al. (1995) ",2.14,10,13,1,1,0,0,0,0,0,0,,12,
4-nitrobenzamide,C7H6N2O3,000619-80-7,NC(=O)c1ccc(cc1)[N+]([O-])=O,"hansch,c et al. (1995) ",0.82,7,6,2,3,0,0,0,0,0,0,,12,
4-dimethylaminobenzoic acid,C9H11N1O2,000619-84-1,CN(C)c1ccc(cc1)C(O)=O,"da,yz et al. (1992) ",1.28,9,11,1,2,0,0,0,0,0,0,,12,
4-ethoxybenzoic acid,C9H10O3,000619-86-3,CCOc1ccc(cc1)C(O)=O,"hansch,c et al. (1995) ",2.39,9,10,0,3,0,0,0,0,0,0,,12,
(4-nitrophenyl)methyl acetate,C9H9N1O4,000619-90-9,CC(=O)OCc1ccc(cc1)[N+]([O-])=O,"hansch,c et al. (1995) ",1.73,9,9,1,4,0,0,0,0,0,0,,14,
5-methylfuran-2-carbaldehyde,C6H6O2,000620-02-0,Cc1oc(C=O)cc1,sangster (1994) ,0.67,6,6,0,2,0,0,0,0,0,0,,8,
4-methoxypyridine,C6H7N1O1,000620-08-6,COc1ccncc1,"hansch,c et al. (1995) ",1,6,7,1,1,0,0,0,0,0,0,,8,
1-ethyl-3-methylbenzene,C9H12,000620-14-4,CCc1cccc(C)c1,"sherblom,pm & eganhouse,rp (1988) ",3.98,9,12,0,0,0,0,0,0,0,0,,9,
3-ethylphenol,C8H10O1,000620-17-7,CCc1cccc(O)c1,"hansch,c et al. (1995) ",2.4,8,10,0,1,0,0,0,0,0,0,,9,
3-(hydroxymethyl)phenol,C7H8O2,000620-24-6,OCc1cccc(O)c1,"hansch,c et al. (1995) ",0.49,7,8,0,2,0,0,0,0,0,0,,9,
n-phenylpropanamide,C9H11N1O1,000620-71-3,CCC(=O)Nc1ccccc1,"hansch,c et al. (1995) ",1.61,9,11,1,1,0,0,0,0,0,0,,11,
"ethylacetoacetate, benzal",C13H14O3,000620-80-4,CC(=O)C(=Cc1ccccc1)C(=O)OCC,"hansch,c et al. (1995) ",2.21,13,14,0,3,0,0,0,0,0,0,,16,
1-nitro-4-(phenoxy)benzene,C12H9N1O3,000620-88-2,[O-][N+](=O)c1ccc(Oc2ccccc2)cc1,"nandihalli,ub et al. (1993) ",3.92,12,9,1,3,0,0,0,0,0,0,,16,
4-[(4-hydroxyphenyl)methyl]phenol,C13H12O2,000620-92-8,Oc1ccc(Cc2ccc(O)cc2)cc1,"hansch,c et al. (1995) ",2.91,13,12,0,2,0,0,0,0,0,0,,15,
3-ethyl-1-phenylurea,C9H12N2O1,000621-04-5,CCNC(=O)Nc1ccccc1,"hansch,c et al. (1995) ",1.64,9,12,2,1,0,0,0,0,0,0,,12,
"n,2-di(phenyl)acetamide",C14H13N1O1,000621-06-7,O=C(Cc1ccccc1)Nc2ccccc2,"yamagami,c et al. (1984) ",2.7,14,13,1,1,0,0,0,0,0,0,,16,
phenylmethylsulfinylmethylbenzene,C14H14O1S1,000621-08-9,O=[S](Cc1ccccc1)Cc2ccccc2,"hansch,c et al. (1995) ",1.99,14,14,0,1,1,0,0,0,0,0,,16,
n-phenylhexanamide,C12H17N1O1,000621-15-8,CCCCCC(=O)Nc1ccccc1,"hansch,c et al. (1995) ",3.28,12,17,1,1,0,0,0,0,0,0,,14,
3-ethoxyphenol,C8H10O2,000621-34-1,CCOc1cccc(O)c1,"hansch,c et al. (1995) ",1.98,8,10,0,2,0,0,0,0,0,0,,10,
2-(3-hydroxyphenyl)acetic acid,C8H8O3,000621-37-4,OC(=O)Cc1cccc(O)c1,"hansch,c et al. (1995) ",0.85,8,8,0,3,0,0,0,0,0,0,,11,
n-(3-bromophenyl)acetamide,C8H8Br1N1O1,000621-38-5,CC(=O)Nc1cccc(Br)c1,"nakagawa,y et al. (1992) ",2.31,8,8,1,1,0,0,0,0,1,0,,11,
n-(3-hydroxyphenyl)acetamide,C8H9N1O2,000621-42-1,CC(=O)Nc1cccc(O)c1,"hansch,c et al. (1995) ",0.73,8,9,1,2,0,0,0,0,0,0,,11,
3-hydroxy-4-methoxybenzaldehyde,C8H8O3,000621-59-0,COc1ccc(C=O)cc1O,"hansch,c et al. (1995) ",0.97,8,8,0,3,0,0,0,0,0,0,,11,
"n,n-dipropylnitrous amide",C6H14N2O1,000621-64-7,CCCN(CCC)N=O,"hansch,c et al. (1995) ",1.36,6,14,2,1,0,0,0,0,0,0,,9,
cinnamamide,C9H9N1O1,000621-79-4,NC(=O)C=Cc1ccccc1,"hansch,c et al. (1995) ",1.43,9,9,1,1,0,0,0,0,0,0,,11,
phenylmethyl carbamate,C8H9N1O2,000621-84-1,NC(=O)OCc1ccccc1,"hansch,c et al. (1995) ",1.2,8,9,1,2,0,0,0,0,0,0,,11,
1-(phenoxy)propan-2-one,C9H10O2,000621-87-4,CC(=O)COc1ccccc1,"hansch,c et al. (1995) ",1.04,9,10,0,2,0,0,0,0,0,0,,11,
2-(phenoxy)acetamide,C8H9N1O2,000621-88-5,NC(=O)COc1ccccc1,"hansch,c et al. (1995) ",0.76,8,9,1,2,0,0,0,0,0,0,,11,
b-phenyl ethyl chloride,C8H9Cl1,000622-24-2,c1ccc(CCCl)cc1,"hansch,c et al. (1995) ",2.95,8,9,0,0,0,0,0,1,0,0,,9,
n-methyl-1-phenylmethanimine,C8H9N1,000622-29-7,CN=Cc1ccccc1,"hansch,c et al. (1995) ",1.64,8,9,1,0,0,0,0,0,0,0,,9,