Names,Formula,CAS No,SMILES,Reference,Exp logp,C,H,N,O,S,P,F,Cl,Br,I,,,
"butane-2,3-dione",C4H6O2,000431-03-8,CC(=O)C(C)=O,"hansch,c et al. (1995) ",-1.34,4,6,0,2,0,0,0,0,0,0,,6,
"methyl 2,2,2-trifluoroacetate",C3H3F3O2,000431-47-0,COC(=O)C(F)(F)F,"hansch,c et al. (1995) ",0.6,3,3,0,2,0,0,3,0,0,0,,8,
"1,3-benzothiazole-2-sulfonamide",C7H6N2O2S2,000433-17-0,N[S](=O)(=O)c1sc2ccccc2n1,"hansch,c et al. (1995) ",1.33,7,6,2,2,2,0,0,0,0,0,,13,
"1,4-bis(trifluoromethyl)benzene",C8H4F6,000433-19-2,FC(F)(F)c1ccc(cc1)C(F)(F)F,"hansch,c et al. (1995) ",3.83,8,4,0,0,0,0,6,0,0,0,,14,
"17-ethynyl-17-hydroxy-10,13-dimethyl-2,6,7,8,9,11,12,14,15,16-decahydro-1h-cyclopenta[a]phenanthren-3-one",C21H28O2,000434-03-7,CC12CCC(=O)C=C1CCC3C2CCC4(C)C3CCC4(O)C#C,"hansch,c et al. (1995) ",3.11,21,28,0,2,0,0,0,0,0,0,,23,
"17-hydroxy-13-methyl-2,6,7,8,9,10,11,12,14,15,16,17-dodecahydro-1h-cyclopenta[a]phenanthren-3-one",C18H26O2,000434-22-0,CC12CCC3C(CCC4=CC(=O)CCC34)C1CCC2O,"hansch,c et al. (1995) ",2.62,18,26,0,2,0,0,0,0,0,0,,20,
"2,2,2-trifluoro-1-phenylethanone",C8H5F3O1,000434-45-7,FC(F)(F)C(=O)c1ccccc1,"hansch,c et al. (1995) ",2.15,8,5,0,1,0,0,3,0,0,0,,12,
"benzoic acid, 2-chloro-6-fluoro-",C7H4Cl1F1O2,000434-75-3,OC(=O)c1c(F)cccc1Cl,"hansch,c et al. (1995) ",2.11,7,4,0,2,0,0,1,1,0,0,,11,
n-phenyl-n-[1-(2-phenylethyl)piperidin-4-yl]propanamide,C22H28N2O1,000437-38-7,CCC(=O)N(C1CCN(CC1)CCc2ccccc2)c3ccccc3,sangster (1993) ,4.05,22,28,2,1,0,0,0,0,0,0,,25,
diazepam,C16H13Cl1N2O1,000439-14-5,CN1C(=O)CN=C(c2ccccc2)c3cc(Cl)ccc13,sangster (1994) ,2.82,16,13,2,1,0,0,0,1,0,0,,20,
"9h-pyrido[3,4-b]indole-, 7-methoxy-1-methyl-",C13H12N2O1,000442-51-3,COc1ccc2c([nH]c3c(C)nccc23)c1,sangster (1994) ,3.56,13,12,2,1,0,0,0,0,0,0,,16,
2-(2-methyl-5-nitroimidazol-1-yl)ethanol,C6H9N3O3,000443-48-1,Cc1ncc(n1CCO)[N+]([O-])=O,"hansch,c et al. (1995) ",-0.02,6,9,3,3,0,0,0,0,0,0,,12,
2-(trifluoromethyl)phenol,C7H5F3O1,000444-30-4,Oc1ccccc1C(F)(F)F,"hansch,c et al. (1995) ",2.8,7,5,0,1,0,0,3,0,0,0,,11,
2-fluorobenzamide,C7H6F1N1O1,000445-28-3,NC(=O)c1ccccc1F,"nakagawa,y et al. (1992) ",0.59,7,6,1,1,0,0,1,0,0,0,,10,
2-fluorobenzoic acid,C7H5F1O2,000445-29-4,OC(=O)c1ccccc1F,"hansch,c et al. (1995) ",1.77,7,5,0,2,0,0,1,0,0,0,,10,
"2,6-dinitro-4-(trifluoromethyl)aniline",C7H4F3N3O4,000445-66-9,Nc1c(cc(cc1[N+]([O-])=O)C(F)(F)F)[N+]([O-])=O,"hansch,c et al. (1995) ",2.29,7,4,3,4,0,0,3,0,0,0,,17,
4-amino-2-fluorobenzoic acid,C7H6F1N1O2,000446-31-1,Nc1ccc(C(O)=O)c(F)c1,"hansch,c et al. (1995) ",1.29,7,6,1,2,0,0,1,0,0,0,,11,
5-fluoro-2-nitrophenol,C6H4F1N1O3,000446-36-6,Oc1cc(F)ccc1[N+]([O-])=O,"schwarzenbach,rp et al. (1988) ",1.91,6,4,1,3,0,0,1,0,0,0,,11,
(2-fluorophenyl)methanol,C7H7F1O1,000446-51-5,OCc1ccccc1F,"el tayar,n et al. (1991) ",1.31,7,7,0,1,0,0,1,0,0,0,,9,
6-(3-methyl-5-nitroimidazol-4-yl)sulfanyl-7h-purine,C9H7N7O2S1,000446-86-6,Cn1cnc(c1Sc2ncnc3nc[nH]c23)[N+]([O-])=O,"hansch,c et al. (1995) ",0.1,9,7,7,2,1,0,0,0,0,0,,19,
"2-(2,5-dihydroxyphenyl)acetic acid",C8H8O4,000451-13-8,OC(=O)Cc1cc(O)ccc1O,sangster (1994) ,0.86,8,8,0,4,0,0,0,0,0,0,,12,
"1,2-di(phenyl)ethanone",C14H12O1,000451-40-1,O=C(Cc1ccccc1)c2ccccc2,"hansch,c et al. (1995) ",3.18,14,12,0,1,0,0,0,0,0,0,,15,
2-(2-fluorophenyl)acetic acid,C8H7F1O2,000451-82-1,OC(=O)Cc1ccccc1F,"hansch,c et al. (1995) ",1.5,8,7,0,2,0,0,1,0,0,0,,11,
452-35-7,C9H10N2O3S2,000452-35-7,CCOc1ccc2nc(sc2c1)[S](N)(=O)=O,"hansch,c et al. (1995) ",2.01,9,10,2,3,2,0,0,0,0,0,,16,
"4-methylbenzene-1,2-diol",C7H8O2,000452-86-8,Cc1ccc(O)c(O)c1,"hansch,c et al. (1995) ",1.37,7,8,0,2,0,0,0,0,0,0,,9,
"1,3-difluoropropan-2-ol",C3H6F2O1,000453-13-4,OC(CF)CF,"hansch,c et al. (1995) ",-0.36,3,6,0,1,0,0,2,0,0,0,,6,
"ethyl 2,2-difluoroacetate",C4H6F2O2,000454-31-9,CCOC(=O)C(F)F,"hansch,c et al. (1995) ",0.87,4,6,0,2,0,0,2,0,0,0,,8,
3-(trifluoromethyl)benzaldehyde,C8H5F3O1,000454-89-7,FC(F)(F)c1cccc(C=O)c1,"hansch,c et al. (1995) ",2.47,8,5,0,1,0,0,3,0,0,0,,12,
3-(trifluoromethyl)benzoic acid,C8H5F3O2,000454-92-2,OC(=O)c1cccc(c1)C(F)(F)F,"hansch,c et al. (1995) ",2.95,8,5,0,2,0,0,3,0,0,0,,13,
4-(trifluoromethyl)aniline,C7H6F3N1,000455-14-1,Nc1ccc(cc1)C(F)(F)F,sangster (1994) ,1.95,7,6,1,0,0,0,3,0,0,0,,11,
4-methylbenzenesulfonyl fluoride,C7H7F1O2S1,000455-16-3,Cc1ccc(cc1)[S](F)(=O)=O,"hansch,c et al. (1995) ",2.74,7,7,0,2,1,0,1,0,0,0,,11,
4-(trifluoromethyl)benzoic acid,C8H5F3O2,000455-24-3,OC(=O)c1ccc(cc1)C(F)(F)F,"hansch,c et al. (1995) ",3.1,8,5,0,2,0,0,3,0,0,0,,13,
1-(3-fluorophenyl)ethanone,C8H7F1O1,000455-36-7,CC(=O)c1cccc(F)c1,"hansch,c et al. (1995) ",1.77,8,7,0,1,0,0,1,0,0,0,,10,
3-fluorobenzamide,C7H6F1N1O1,000455-37-8,NC(=O)c1cccc(F)c1,"hansch,c et al. (1995) ",0.91,7,6,1,1,0,0,1,0,0,0,,10,
3-fluorobenzoic acid,C7H5F1O2,000455-38-9,OC(=O)c1cccc(F)c1,"hansch,c et al. (1995) ",2.15,7,5,0,2,0,0,1,0,0,0,,10,
4-amino-3-fluorobenzoic acid,C7H6F1N1O2,000455-87-8,Nc1ccc(cc1F)C(O)=O,sangster (1994) ,1.41,7,6,1,2,0,0,1,0,0,0,,11,
4-fluorobenzoic acid,C7H5F1O2,000456-22-4,OC(=O)c1ccc(F)cc1,"hansch,c et al. (1995) ",2.07,7,5,0,2,0,0,1,0,0,0,,10,
m-fluorobenzyl chloride,C7H6Cl1F1,000456-42-8,Fc1cccc(CCl)c1,"hansch,c et al. (1995) ",2.77,7,6,0,0,0,0,1,1,0,0,,9,
1-fluoro-3-methoxybenzene,C7H7F1O1,000456-49-5,COc1cccc(F)c1,"dunn,wj et al. (1983) ",2.36,7,7,0,1,0,0,1,0,0,0,,9,
trifluoromethoxybenzene,C7H5F3O1,000456-55-3,FC(F)(F)Oc1ccccc1,"hansch,c et al. (1995) ",3.17,7,5,0,1,0,0,3,0,0,0,,11,
trifluoromethylsulfanylbenzene,C7H5F3S1,000456-56-4,FC(F)(F)Sc1ccccc1,"hansch,c et al. (1995) ",3.57,7,5,0,0,1,0,3,0,0,0,,11,
"1,1,1-trifluoro-n-phenylmethanesulfonamide",C7H6F3N1O2S1,000456-64-4,FC(F)(F)[S](=O)(=O)Nc1ccccc1,"hansch,c et al. (1995) ",3.05,7,6,1,2,1,0,3,0,0,0,,14,
n-ethyl-1-[3-(trifluoromethyl)phenyl]propan-2-amine,C12H16F3N1,000458-24-2,CCNC(C)Cc1cccc(c1)C(F)(F)F,sangster (1993) ,3.36,12,16,1,0,0,0,3,0,0,0,,16,
difluoromethoxybenzene,C7H6F2O1,000458-92-4,FC(F)Oc1ccccc1,"hansch,c et al. (1995) ",2.44,7,6,0,1,0,0,2,0,0,0,,10,
p-fluorobenzaldoxime,C7H6F1N1O1,000459-23-4,ON=Cc1ccc(F)cc1,"hansch,c et al. (1995) ",2.03,7,6,1,1,0,0,1,0,0,0,,10,
n-(4-fluorophenyl)formamide,C7H6F1N1O1,000459-25-6,Fc1ccc(NC=O)cc1,"hansch,c et al. (1995) ",1.27,7,6,1,1,0,0,1,0,0,0,,10,
(4-fluorophenyl)methanol,C7H7F1O1,000459-56-3,OCc1ccc(F)cc1,"el tayar,n et al. (1991) ",1.36,7,7,0,1,0,0,1,0,0,0,,9,
4-fluorobenzaldehyde,C7H5F1O1,000459-57-4,Fc1ccc(C=O)cc1,"bazaco,jf & coca,cm (1989) ",1.54,7,5,0,1,0,0,1,0,0,0,,9,
1-fluoro-4-methoxybenzene,C7H7F1O1,000459-60-9,COc1ccc(F)cc1,"dunn,wj et al. (1983) ",2.26,7,7,0,1,0,0,1,0,0,0,,9,
1-bromo-4-fluorobenzene,C6H4Br1F1,000460-00-4,Fc1ccc(Br)cc1,"dunn,wj et al. (1983) ",3.08,6,4,0,0,0,0,1,0,1,0,,8,
cyanogen,C2N2,000460-19-5,N#CC#N,"hansch,c et al. (1995) ",0.07,2,0,2,0,0,0,0,0,0,0,,4,
"4,4,4-trifluorobutan-1-ol",C4H7F3O1,000461-18-7,OCCCC(F)(F)F,"muller,n (1986) ",0.9,4,7,0,1,0,0,3,0,0,0,,8,
"imidazolidine-2,4-dione",C3H4N2O2,000461-72-3,O=C1CNC(=O)N1,"hansch,c et al. (1995) ",-1.69,3,4,2,2,0,0,0,0,0,0,,7,
chlorphentermine,C10H14Cl1N1,000461-78-9,CC(C)(N)Cc1ccc(Cl)cc1,"hansch,c et al. (1995) ",2.6,10,14,1,0,0,0,0,1,0,0,,12,
"2,6-dimethylpyrimidin-4-amine",C6H9N3,000461-98-3,Cc1cc(N)nc(C)n1,"hansch,c et al. (1995) ",0.39,6,9,3,0,0,0,0,0,0,0,,9,
fluorobenzene,C6H5F1,000462-06-6,Fc1ccccc1,"hansch,c et al. (1995) ",2.27,6,5,0,0,0,0,1,0,0,0,,7,
3-pyridinamine,C5H6N2,000462-08-8,Nc1cccnc1,"hansch,c et al. (1995) ",0.11,5,6,2,0,0,0,0,0,0,0,,7,
3-fluoropropan-1-ol,C3H7F1O1,000462-43-1,OCCCF,"hansch,c et al. (1995) ",-0.28,3,7,0,1,0,0,1,0,0,0,,5,
ethoxymethoxyethane,C5H12O2,000462-95-3,CCOCOCC,"hansch,c et al. (1995) ",0.84,5,12,0,2,0,0,0,0,0,0,,7,
"9,12,15-octadecatrienoic acid, (z,z,z)-",C18H30O2,000463-40-1,CC\C=C/C/C=C\C\C=C/CCCCCCCC(O)=O,sangster (1993) ,6.46,18,30,0,2,0,0,0,0,0,0,,20,
"propa-1,2-diene",C3H4,000463-49-0,[CH2]=[C]=[CH2],"hansch,c et al. (1995) ",1.45,3,4,0,0,0,0,0,0,0,0,,3,
"2,2-dimethylpropane",C5H12,000463-82-1,CC(C)(C)C,"hansch,c et al. (1995) ",3.11,5,12,0,0,0,0,0,0,0,0,,5,
"3,3-dimethylbutan-2-ol",C6H14O1,000464-07-3,CC(O)C(C)(C)C,"hansch,c et al. (1995) ",1.48,6,14,0,1,0,0,0,0,0,0,,7,
4'-epioleandrin,C32H48O9,000508-22-5,CC1C(C(CC(O1)OC2CCC3(C(C2)CCC4C3CCC5(C4(CC(C5C6=CC(=O)OC6)OC(=O)C)O)C)C)OC)O,"hansch,c et al. (1995) ",2.26,32,48,0,9,0,0,0,0,0,0,,41,
proscillaridin,C30H42O8,000466-06-8,CC1OC(O[C@H]2CC[C@]3(C)[C@H]4CC[C@]5(C)[C@H](CC[C@]5(O)[C@@H]4CCC3=C2)C6=COC(=O)C=C6)C(O)C(O)C1O,sangster (1994) ,2.48,30,42,0,8,0,0,0,0,0,0,,38,
neriifolin,C30H46O8,000466-07-9,COC1C(O)C(C)OC(O[C@H]2CC[C@@]3(C)[C@H](CC[C@@H]4[C@@H]3CC[C@]5(C)[C@H](CC[C@]45O)C6=CC(=O)OC6)C2)C1O,"hansch,c et al. (1995) ",2.1,30,46,0,8,0,0,0,0,0,0,,38,
normorphine,C16H18N1O3,000466-97-7,OC1C=CC2C3Cc4ccc(O)c5OC1C2(CCN3)c45,"avdeef,a et al. (1996) ",-0.17,16,18,1,3,0,0,0,0,0,0,,20,
norcodeine,C17H20N1O3,000467-15-2,COc1ccc2CC3NCCC45C(Oc1c24)C(O)C=CC35,"avdeef,a et al. (1996) ",0.69,17,20,1,3,0,0,0,0,0,0,,21,
isostrychnine,C21H22N2O2,000467-16-3,OC\C=C\1CN2CCC34C2CC1C5=CCC(=O)N(C35)c6ccccc46,biobyte starlist (2009) ,1.37,21,22,2,2,0,0,0,0,0,0,,25,
(3-ethyl-1-methyl-4-phenylpiperidin-4-yl) propanoate,C17H25N1O2,000468-50-8,CCC1CN(C)CCC1(OC(=O)CC)c2ccccc2,"craig,pn (1990) ",3.61,17,25,1,2,0,0,0,0,0,0,,20,
pisatin,C17H14O6,020186-22-5,COc1ccc2[C@H]3Oc4cc5OCOc5cc4[C@@]3(O)COc2c1,biobyte starlist (2009) ,2.58,17,14,0,6,0,0,0,0,0,0,,23,
"[4-dimethylamino-3-methyl-1,2-di(phenyl)butan-2-yl] propanoate",C22H29N1O2,002338-37-6,CCC(=O)OC(Cc1ccccc1)(C(C)CN(C)C)c2ccccc2,biobyte (1995) ,4.18,22,29,1,2,0,0,0,0,0,0,,25,
"8a-methyl-3,5-dimethylidene-3a,4,4a,6,7,8,9,9a-octahydronaphtho[3,2-d]furan-2-one",C15H20O2,000470-17-7,CC12CCCC(=C)C1CC3C(C2)OC(=O)C3=C,sangster (1993) ,3.42,15,20,0,2,0,0,0,0,0,0,,17,
4-methyl-1-propan-2-yl-7-oxabicyclo[2.2.1]heptane,C10H18O1,000470-67-7,CC(C)C12CCC(C)(CC1)O2,"griffin,s et al. (1999) ",2.97,10,18,0,1,0,0,0,0,0,0,,11,
"4,7,7-trimethyl-8-oxabicyclo[2.2.2]octane",C10H18O1,000470-82-6,CC12CCC(CC1)C(C)(C)O2,"griffin,s et al. (1999) ",2.74,10,18,0,1,0,0,0,0,0,0,,11,
chlorfenvinphos,C12H14Cl3O4P1,000470-90-6,CCO[P](=O)(OCC)OC(=C\Cl)/c1ccc(Cl)cc1Cl,sangster (1994) ,3.81,12,14,0,4,0,1,0,3,0,0,,20,
5-fluoropyrimidine,C4H3F1N2,000675-21-8,Fc1cncnc1,"yamagami,c et al. (1990) ",-0.03,4,3,2,0,0,0,1,0,0,0,,7,
"2-[4-(3,7,12-trihydroxy-10,13-dimethyl-2,3,4,5,6,7,8,9,11,12,14,15,16,17-tetradecahydro-1h-cyclopenta[a]phenanthren-17-yl)pentanoylamino]acetic acid",C26H43N1O6,000475-31-0,CC(CCC(=O)NCC(O)=O)C1CCC2C3C(O)CC4CC(O)CCC4(C)C3CC(O)C12C,"roda,a et al. (1990) ",1.65,26,43,1,6,0,0,0,0,0,0,,33,
"naphthalene-1,8-diamine",C10H10N2,002243-62-1,Nc1cccc2cccc(N)c12,"schultz,tw & applehans,fm (1985) ",0.89,10,10,2,0,0,0,0,0,0,0,,12,
"4-[(4-aminophenyl)-(4-imino-1-cyclohexa-2,5-dienylidene)methyl]aniline",C19H17N3,000479-73-2,Nc1ccc(cc1)C(c2ccc(N)cc2)=C3C=CC(=N)C=C3,biobyte starlist (2009) ,-0.21,19,17,3,0,0,0,0,0,0,0,,22,
"1,5-dimethyl-2-phenyl-4-propan-2-ylpyrazol-3-one",C14H18N2O1,000479-92-5,CC(C)C1=C(C)N(C)N(c2ccccc2)C1=O,sangster (1994) ,1.94,14,18,2,1,0,0,0,0,0,0,,17,
"2-(3,4-dihydroxyphenyl)-3,5,7-trihydroxychroman-4-one",C15H12O7,000480-18-2,OC1C(Oc2cc(O)cc(O)c2C1=O)c3ccc(O)c(O)c3,"perrissoud,d & testa,b (1986) ",0.95,15,12,0,7,0,0,0,0,0,0,,22,
"5,7-dihydroxy-2-phenylchromen-4-one",C15H10O4,000480-40-0,Oc1cc(O)c2C(=O)C=C(Oc2c1)c3ccccc3,"perrissoud,d & testa,b (1986) ",3.52,15,10,0,4,0,0,0,0,0,0,,19,
"5,7-dihydroxy-2-(4-hydroxyphenyl)chroman-4-one",C15H12O5,000480-41-1,Oc1ccc(cc1)C2CC(=O)c3c(O)cc(O)cc3O2,"perrissoud,d & testa,b (1986) ",2.52,15,12,0,5,0,0,0,0,0,0,,20,
"1-oxido-2,1,3-benzoxadiazol-1-ium",C6H4N2O2,000480-96-6,[O-][n+]1onc2ccccc12,"calvino,r et al. (1992) ",1.43,6,4,2,2,0,0,0,0,0,0,,10,
2-(2-carboxyphenyl)benzoic acid,C14H10O4,000482-05-3,OC(=O)c1ccccc1c2ccccc2C(O)=O,pomona (1987) ,2.07,14,10,0,4,0,0,0,0,0,0,,18,
"2,3-dimethoxy-5,6-dimethylbenzoquinone",C10H12O4,000483-54-5,COC1=C(OC)C(=O)C(=C(C)C1=O)C,"hansch,c et al. (1995) ",1.26,10,12,0,4,0,0,0,0,0,0,,14,
"2,2-dihydroxyindene-1,3-dione",C9H6O4,000485-47-2,OC1(O)C(=O)c2ccccc2C1=O,pomona (1987) ,0.67,9,6,0,4,0,0,0,0,0,0,,13,
tripolidine,C19H22N2,000486-12-4,Cc1ccc(C(=CCN3CCCC3)c2ccccn2)cc1,"hansch,c et al. (1995) ",3.92,19,22,2,0,0,0,0,0,0,0,,21,
fluoren-9-one,C13H8O1,000486-25-9,O=C1c2ccccc2c3ccccc13,"hansch,c et al. (1995) ",3.58,13,8,0,1,0,0,0,0,0,0,,14,
1-methyl-5-pyridin-3-ylpyrrolidin-2-one,C10H12N2O1,000486-56-6,CN1C(CCC1=O)c2cccnc2,"li,ny & gorrod,jw (1992) ",0.07,10,12,2,1,0,0,0,0,0,0,,13,
harmol,C12H10N2O1,000487-03-6,CC1=C2NC3=CC(=O)C=CC3=C2C=CN1,biobyte starlist (2009) ,2.84,12,10,2,1,0,0,0,0,0,0,,15,
2-phenylchroman-4-one,C15H12O2,000487-26-3,O=C1CC(Oc2ccccc12)c3ccccc3,"beyeler,s et al. 1988 ",3.14,15,12,0,2,0,0,0,0,0,0,,17,
2-[(2-hydroxybenzoyl)amino]acetic acid,C9H9N1O4,000487-54-7,OC(=O)CNC(=O)c1ccccc1O,"hansch,c et al. (1995) ",0.95,9,9,1,4,0,0,0,0,0,0,,14,
1h-indole-3-carbaldehyde,C9H7N1O1,000487-89-8,O=Cc1c[nH]c2ccccc12,"hansch,c et al. (1995) ",1.68,9,7,1,1,0,0,0,0,0,0,,11,
"1,2,3,4-tetramethylbenzene",C10H14,000488-23-3,Cc1ccc(C)c(C)c1C,sangster (1994) ,4,10,14,0,0,0,0,0,0,0,0,,10,
"1,6-dibromohexane-2,3,4,5-tetrol",C6H12Br2O4,010318-26-0,OC(CBr)C(O)C(O)C(O)CBr,"hansch,c et al. (1995) ",-0.29,6,12,0,4,0,0,0,0,2,0,,12,
furan-3-carboxylic acid,C5H4O3,000488-93-7,OC(=O)c1cocc1,"hansch,c et al. (1995) ",1.03,5,4,0,3,0,0,0,0,0,0,,8,
"2,5-dihydroxybenzoic acid",C7H6O4,000490-79-9,OC(=O)c1cc(O)ccc1O,sangster (1994) ,1.74,7,6,0,4,0,0,0,0,0,0,,11,
"2-methyl-5-propan-2-ylcyclohexa-2,5-diene-1,4-dione",C10H12O2,000490-91-5,CC(C)C1=CC(=O)C(=CC1=O)C,sangster (1993) ,2.2,10,12,0,2,0,0,0,0,0,0,,12,
4-methylquinoline,C10H9N1,000491-35-0,Cc1ccnc2ccccc12,"hansch,c et al. (1995) ",2.61,10,9,1,0,0,0,0,0,0,0,,11,
quinazolidin-4-one,C8H6N2O1,000491-36-1,c12ccccc1N=CNC2(=O),"hansch,c et al. (1995) ",0.77,8,6,2,1,0,0,0,0,0,0,,11,
chromen-4-one,C9H6O2,000491-38-3,O=C1C=COc2ccccc12,"hansch,c et al. (1995) ",1.38,9,6,0,2,0,0,0,0,0,0,,11,
"2-(3,4-dihydroxyphenyl)-5,7-dihydroxychromen-4-one",C15H10O6,000491-70-3,Oc1cc(O)c2C(=O)C=C(Oc2c1)c3ccc(O)c(O)c3,"perrissoud,d & testa,b (1986) ",2.53,15,10,0,6,0,0,0,0,0,0,,21,
5-hydroxy-2-phenylchromen-4-one,C15H10O3,000491-78-1,Oc1cccc2OC(=CC(=O)c12)c3ccccc3,"perrissoud,d & testa,b (1986) ",4.3,15,10,0,3,0,0,0,0,0,0,,18,
"2-(3,4-dihydroxyphenyl)-7-hydroxychroman-4-one",C15H12O5,000492-14-8,Oc1ccc2C(=O)CC(Oc2c1)c3ccc(O)c(O)c3,"perrissoud,d & testa,b (1986) ",1.94,15,12,0,5,0,0,0,0,0,0,,20,
thioxanthen-9-one,C13H8O1S1,000492-22-8,O=C1c2ccccc2Sc3ccccc13,"hansch,c et al. (1995) ",3.99,13,8,0,1,1,0,0,0,0,0,,15,
"1,2-di(furan-2-yl)ethane-1,2-dione",C10H6O4,000492-94-4,O=C(C(=O)c1occc1)c2occc2,"hansch,c et al. (1995) ",1.24,10,6,0,4,0,0,0,0,0,0,,14,
2-thiophen-2-ylthiophene,C8H6S2,000492-97-7,s1cccc1c2sccc2,"de voogt,p et al. (1990) ",3.75,8,6,0,0,2,0,0,0,0,0,,10,
3-piperidin-2-ylpyridine,C10H14N2,000494-52-0,C1CCC(NC1)c2cccnc2,"hansch,c et al. (1995) ",0.97,10,14,2,0,0,0,0,0,0,0,,12,
3-pyrrolidin-2-ylpyridine,C9H12N2,000494-97-3,C1CNC(C1)c2cccnc2,"hansch,c et al. (1995) ",0.17,9,12,2,0,0,0,0,0,0,0,,11,
n-hydroxybenzamide,C7H7N1O2,000495-18-1,ONC(=O)c1ccccc1,"hansch,c et al. (1995) ",0.26,7,7,1,2,0,0,0,0,0,0,,10,
1-phenylbutan-1-one,C10H12O1,000495-40-9,CCCC(=O)c1ccccc1,sangster (1993) ,2.77,10,12,0,1,0,0,0,0,0,0,,11,
2-(benzoylamino)acetic acid,C9H9N1O3,000495-69-2,OC(=O)CNC(=O)c1ccccc1,"hansch,c et al. (1995) ",0.31,9,9,1,3,0,0,0,0,0,0,,13,
"2,3-dihydro-1h-indene",C9H10,000496-11-7,C1Cc2ccccc2C1,"hansch,c et al. (1995) ",3.18,9,10,0,0,0,0,0,0,0,0,,9,
"1,3-dihydro-2-benzofuran",C8H8O1,000496-14-0,C1OCc2ccccc12,"hansch,c et al. (1995) ",1.76,8,8,0,1,0,0,0,0,0,0,,9,
"2,3-dihydro-1-benzofuran",C8H8O1,000496-16-2,C1Cc2ccccc2O1,"hansch,c et al. (1995) ",2.14,8,8,0,1,0,0,0,0,0,0,,9,
1-benzofuran-2-carboxylic acid,C9H6O3,000496-41-3,OC(=O)c1oc2ccccc2c1,"hansch,c et al. (1995) ",2.41,9,6,0,3,0,0,0,0,0,0,,12,
2-bromo-n-carbamoyl-3-methylbutanamide,C6H11Br1N2O2,000496-67-3,CC(C)C(Br)C(=O)NC(N)=O,"hansch,c et al. (1995) ",1.14,6,11,2,2,0,0,0,0,1,0,,11,
"4-methylbenzene-1,2-diamine",C7H10N2,000496-72-0,Cc1ccc(N)c(N)c1,"debnath,ak et al. (1992) ",0.66,7,10,2,0,0,0,0,0,0,0,,9,
5h-furan-2-one,C4H4O2,000497-23-4,O=C1OCC=C1,"hansch,c et al. (1995) ",-0.6,4,4,0,2,0,0,0,0,0,0,,6,
bicyclo[2.2.1]heptan-6-ol,C7H12O1,000497-37-0,OC1CC2CCC1C2,"lodge,kb (1999) ",1.37,7,12,0,1,0,0,0,0,0,0,,8,
"2-(hydroxymethyl)-6-(4-hydroxyphenoxy)oxane-3,4,5-triol",C12H16O7,000497-76-7,OCC1OC(Oc2ccc(O)cc2)C(O)C(O)C1O,"hansch,c et al. (1995) ",-1.35,12,16,0,7,0,0,0,0,0,0,,19,
furan-3-carbaldehyde,C5H4O2,000498-60-2,O=Cc1cocc1,"hansch,c et al. (1995) ",0.51,5,4,0,2,0,0,0,0,0,0,,7,
thiophene-3-carbaldehyde,C5H4O1S1,000498-62-4,O=Cc1cscc1,"hansch,c et al. (1995) ",1.01,5,4,0,1,1,0,0,0,0,0,,7,
bicyclo[2.2.1]hept-2-ene,C7H10,000498-66-8,C1CC2CC1C=C2,"lodge,kb (1999) ",3.24,7,10,0,0,0,0,0,0,0,0,,7,
piperidine-4-carboxylic acid,C6H11N1O2,000498-94-2,OC(=O)C1CCNCC1,"tsai,rs et al. (1991) ",-3.05,6,11,1,2,0,0,0,0,0,0,,9,
piperidine-3-carboxylic acid,C6H11N1O2,000498-95-3,OC(=O)C1CCCNC1,"tsai,rs et al. (1991) ",-2.89,6,11,1,2,0,0,0,0,0,0,,9,
2-methyl-5-propan-2-ylphenol,C10H14O1,000499-75-2,CC(C)c1ccc(C)c(O)c1,"griffin,s et al. (1999) ",3.49,10,14,0,1,0,0,0,0,0,0,,11,
pyridine-3-carbaldehyde,C6H5N1O1,000500-22-1,O=Cc1cccnc1,"hansch,c et al. (1995) ",0.29,6,5,1,1,0,0,0,0,0,0,,8,
3-chloro-dimethyl parathion,C8H9Cl1N1O5P1S1,000500-28-7,N(=O)(=O)c1ccc(OP(=S)(OC)OC)cc1Cl,"hansch,c et al. (1995) ",3.45,8,9,1,5,1,1,0,1,0,0,,17,
"imidodicarbonimidic diamide, n-(4-chlorophenyl)-",C11H16Cl1N5,000500-92-5,NC(=N)NC(=N)Nc1ccc(Cl)cc1,sangster (1994) ,2.53,11,16,5,0,0,0,0,1,0,0,,17,
"3,5-dimethoxyphenol",C8H10O3,000500-99-2,COc1cc(O)cc(OC)c1,"hansch,c et al. (1995) ",1.64,8,10,0,3,0,0,0,0,0,0,,11,
3-phenylpropanoic acid,C9H10O2,000501-52-0,OC(=O)CCc1ccccc1,"hansch,c et al. (1995) ",1.84,9,10,0,2,0,0,0,0,0,0,,11,
2-phenylethynylbenzene,C14H10,000501-65-5,c1ccc(cc1)C#Cc2ccccc2,"hansch,c et al. (1995) ",4.78,14,10,0,0,0,0,0,0,0,0,,14,
4-(carboxymethyl)benzoic acid,C9H8O4,000501-89-3,OC(=O)Cc1ccc(cc1)C(O)=O,sangster (1994) ,1.24,9,8,0,4,0,0,0,0,0,0,,13,
3-(4-hydroxyphenyl)propanoic acid,C9H10O3,000501-97-3,OC(=O)CCc1ccc(O)cc1,"hansch,c et al. (1995) ",1.16,9,10,0,3,0,0,0,0,0,0,,12,
"cinnamic acid, p-hydroxy",C9H8O3,007400-08-0,Oc1ccc(C=CC(=O)(O))cc1,sangster (1994) ,1.79,9,8,0,3,0,0,0,0,0,0,,12,
nonan-5-one,C9H18O1,000502-56-7,CCCCC(=O)CCCC,"abraham,mh et al. (1994) ",2.88,9,18,0,1,0,0,0,0,0,0,,10,
2-(fluoromethyl)oxirane,C3H5F1O1,000503-09-3,FCC1CO1,"hansch,c et al. (1995) ",-0.16,3,5,0,1,0,0,1,0,0,0,,5,
but-2-yne,C4H6,000503-17-3,CC#CC,"hansch,c et al. (1995) ",1.46,4,6,0,0,0,0,0,0,0,0,,4,
oxetane,C3H6O1,000503-30-0,C1COC1,"hansch,c et al. (1995) ",-0.14,3,6,0,1,0,0,0,0,0,0,,4,
3-methylbutanoic acid,C5H10O2,000503-74-2,CC(C)CC(O)=O,"hansch,c et al. (1995) ",1.16,5,10,0,2,0,0,0,0,0,0,,7,
pyridin-4-amine,C5H6N2,000504-24-5,Nc1ccncc1,"hansch,c et al. (1995) ",0.32,5,6,2,0,0,0,0,0,0,0,,7,
pyridin-2-amine,C5H6N2,000504-29-0,Nc1ccccn1,"hansch,c et al. (1995) ",0.48,5,6,2,0,0,0,0,0,0,0,,7,
"propane-1,3-diol",C3H8O2,000504-63-2,OCCCO,"hansch,c et al. (1995) ",-1.04,3,8,0,2,0,0,0,0,0,0,,5,
"2,8-decadiene-4,6-diynoic acid, methyl ester",C11H10O2,000505-02-2,COC(=O)C=CC#CC#CC=CC,"mclachlan,d et al. (1986) ",2.45,11,10,0,2,0,0,0,0,0,0,,13,
"1,4-dithiane",C4H8S2,000505-29-3,C1CSCCS1,"munro,nb et al. (1999) ",0.77,4,8,0,0,2,0,0,0,0,0,,6,
icosanoic acid,C20H40O2,000506-30-9,CCCCCCCCCCCCCCCCCCCC(O)=O,sangster (1993) ,9.29,20,40,0,2,0,0,0,0,0,0,,22,
"5,8,11,14-eicosatetraenoic acid",C20H32O2,000506-32-1,CCCCCC=CCC=CCC=CCC=CCCCC(O)=O,sangster (1993) ,6.98,20,32,0,2,0,0,0,0,0,0,,22,
"1,1,1-trifluoro-2-methylpropan-2-ol",C4H7F3O1,000507-52-8,CC(C)(O)C(F)(F)F,"muller,n (1986) ",1.04,4,7,0,1,0,0,3,0,0,0,,8,
"4-[1,3,5,11,14-pentahydroxy-10-(hydroxymethyl)-13-methyl-2,3,4,6,7,8,9,11,12,15,16,17-dodecahydro-1h-cyclopenta[a]phenanthren-17-yl]-5h-furan-2-one",C23H34O8,000508-52-1,CC12CC(O)C3C(CCC4(O)CC(O)CC(O)C34CO)C1(O)CCC2C5=CC(=O)OC5,"hansch,c et al. (1995) ",-0.02,23,34,0,8,0,0,0,0,0,0,,31,