Names,Formula,CAS No,SMILES,Reference,Exp logp,C,H,N,O,S,P,F,Cl,Br,I,,,
25hfuranone3chloro4dichloromethyl5hydroxy,C5H3Cl3O3,not,O1C(=O)C(Cl)=C(C(Cl)Cl)C1O,biobyte (1995) ,1.13,5,3,0,3,0,0,0,3,0,0,,11,
"isomazole,pyrimidyl analog",C13H12N4O2S1,077456-53-2,COC1=C(C=CC(=C1)S(=O)C)C2=NC3=NC=NC=C3N2,"hansch,c et al. (1995) ",0.53,13,12,4,2,1,0,0,0,0,0,,20,
pyraclofos,C14H18Cl1N2O3P1S1,077458-01-6,CCCS[P](=O)(OCC)Oc1cnn(c1)c2ccc(Cl)cc2,biobyte (1995) ,3.77,14,18,2,3,1,1,0,1,0,0,,22,
"3,8-dimethylimidazo[5,4-h]quinoxalin-2-amine",C11H11N5,not,Cn1c(N)nc2c1ccc3ncc(C)nc23,"hansch,c et al. (1995) ",1.01,11,11,5,0,0,0,0,0,0,0,,16,
"3-methyl-4-propyl-1,2,5-oxadiazole",C6H10N2O1,077580-78-0,CCCc1nonc1C,"calvino,r et al. (1992) ",1.71,6,10,2,1,0,0,0,0,0,0,,9,
"3-methyl-4-nitro-1,2,5-oxadiazole",C3H3N3O3,077666-53-6,Cc1nonc1[N+]([O-])=O,"calvino,r et al. (1992) ",0.97,3,3,3,3,0,0,0,0,0,0,,9,
"n-(2,6-dimethylphenyl)-2-methoxy-n-(2-oxo-1,3-oxazolidin-3-yl)acetamide",C14H18N2O4,077732-09-3,COCC(=O)N(N1CCOC1=O)c2c(C)cccc2C,"tomlin,c (1997) ",0.8,14,18,2,4,0,0,0,0,0,0,,20,
n-[4-(dimethylsulfamoyl)phenyl]-n-methylformamide,C10H14N2O3S1,077812-87-4,CN(C)[S](=O)(=O)c1ccc(cc1)N(C)C=O,"hansch,c & leo,aj (1985) ",0.4,10,14,2,3,1,0,0,0,0,0,,16,
"4-pentynamide, n-[4-[(dimethylamino)sulfonyl]phe",C14H18N2O3S1,077812-88-5,C#CCCC(=O)N(C)c1ccc(S(=O)(=O)N(C)C)cc1,pomona (1987) ,0.88,14,18,2,3,1,0,0,0,0,0,,20,
"[4-(4-amino-6,7-dimethoxyquinazolin-2-yl)piperazin-1-yl]-(2,3-dihydro-1,4-benzodioxin-2-yl)methanone",C23H25N5O5,077883-43-3,COc1cc2nc(nc(N)c2cc1OC)N3CCN(CC3)C(=O)C4COc5ccccc5O4,"lipinski,ca et al. (1994) ",3.3,23,25,5,5,0,0,0,0,0,0,,33,
"5-[(4-ethyl-3,5-dimethoxyphenyl)methyl]pyrimidine-2,4-diamine",C15H20N4O2,078026-01-4,CCc1c(OC)cc(Cc2cnc(N)nc2N)cc1OC,"hansch,c & leo,aj (1985) ",2.72,15,20,4,2,0,0,0,0,0,0,,21,
methyl 6-methyl-2-[(3-methylpyridin-2-yl)methylsulfinyl]-1h-benzimidazole-5-carboxylate,C17H17N3O3S1,078090-11-6,CC1=C(N=CC=C1)CS(=O)C2=NC3=C(N2)C=C(C(=C3)C(=O)OC)C,pomona (1987) ,2.4,17,17,3,3,1,0,0,0,0,0,,24,
"5-[[4-methoxy-3-(phenylmethoxy)phenyl]methyl]pyrimidine-2,4-diamine",C19H20N4O2,083158-06-9,COc1ccc(Cc2cnc(N)nc2N)cc1OCc3ccccc3,"hansch,c & leo,aj (1985) ",2.66,19,20,4,2,0,0,0,0,0,0,,25,
"2-[[2-[(3-bromo-2,4,6-trimethylphenyl)amino]-2-oxoethyl]-(carboxymethyl)amino]acetic acid",C15H19Br1N2O5,078266-06-5,Cc1cc(C)c(NC(=O)CN(CC(O)=O)CC(O)=O)c(C)c1Br,"godoy,n et al. (1989) ",0.11,15,19,2,5,0,0,0,0,1,0,,23,
1-nitroso-3-phenyl-1-propan-2-ylurea,C10H13N3O2,078326-57-5,CC(C)N(N=O)C(=O)Nc1ccccc1,"hansch,c & leo,aj (1985) ",2.5,10,13,3,2,0,0,0,0,0,0,,15,
"propanedioic acid, 1,3-dithiolan-2-ylidene, dihe",C20H34O4S2,078432-88-9,CCCCCCCOC(=O)C(=C1SCCS1)C(=O)OCCCCCCC,"hansch,c et al. (1995) ",7.6,20,34,0,4,2,0,0,0,0,0,,26,
"3-(4-bromo-3,5-dimethylphenyl)-1,1-dimethylurea",C11H15Br1N2O1,078508-43-7,CN(C)C(=O)Nc1cc(C)c(Br)c(C)c1,"hansch,c & leo,aj (1985) ",2.92,11,15,2,1,0,0,0,0,1,0,,15,
(4-bromo-3-methylphenyl)urea,C8H9Br1N2O1,078508-46-0,Cc1cc(NC(N)=O)ccc1Br,"hansch,c et al. (1995) ",2.49,8,9,2,1,0,0,0,0,1,0,,12,
"[9-hydroxy-6-methyl-3-(5-phenylpentan-2-yloxy)-5,6,6a,7,8,9,10,10a-octahydrophenanthridin-1-yl] acetate",C27H35N1O4,074430-97-0,CC(CCCc1ccccc1)Oc2cc3NC(C)C4CCC(O)CC4c3c(OC(C)=O)c2,sangster (1993) ,5.74,27,35,1,4,0,0,0,0,0,0,,32,
"cinnoline, 3-bromo-",C8H5Br1N2,078593-33-6,Brc1cc2ccccc2nn1,sangster (1993) ,1.72,8,5,2,0,0,0,0,0,1,0,,11,
"2-heptoxy-6-(hydroxymethyl)oxane-3,4,5-triol",C13H26O6,078617-12-6,CCCCCCCOC1OC(CO)C(O)C(O)C1O,sangster (1993) ,0.73,13,26,0,6,0,0,0,0,0,0,,19,
"n,n'-bis(2,3-dihydroxypropyl)-5-[(2-hydroxyacetyl)-methylamino]-2,4,6-triiodobenzene-1,3-dicarboxamide",C17H22I3N3O8,078649-41-9,CN(C(=O)CO)c1c(I)c(C(=O)NCC(O)CO)c(I)c(C(=O)NCC(O)CO)c1I,biobyte starlist (2009) ,-2.79,17,22,3,8,0,0,0,0,0,3,,31,
"ethyl 8-fluoro-5-methyl-6-oxo-4h-imidazo[1,5-a][1,4]benzodiazepine-3-carboxylate",C15H14F1N3O3,078755-81-4,CCOC(=O)c1ncn2c1CN(C)C(=O)c3cc(F)ccc23,mfg data sheet ,1,15,14,3,3,0,0,1,0,0,0,,22,
n-(2-dimethylaminoethyl)-2-methoxybenzamide,C12H18N2O2,078798-46-6,COc1ccccc1C(=O)NCCN(C)C,"hansch,c et al. (1995) ",1.14,12,18,2,2,0,0,0,0,0,0,,16,
p-toluic acid 1-methylhydrazide,C9H12N2O1,079129-59-2,CN(N)C(=O)c1ccc(C)cc1,"britto,mm et al. (1999) ",1.36,9,12,2,1,0,0,0,0,0,0,,12,
"methyl 3-[(4-methoxy-6-methyl-1,3,5-triazin-2-yl)carbamoylsulfamoyl]thiophene-2-carboxylate",C12H13N5O6S2,079277-27-3,COC(=O)c1sccc1[S](=O)(=O)NC(=O)Nc2nc(C)nc(OC)n2,"hay,jv (1990) ",1.56,12,13,5,6,2,0,0,0,0,0,,25,
[2-[2-(aminomethyl)phenyl]sulfanylphenyl]methanol,C14H15N1O1S1,079467-22-4,NCc1ccccc1Sc2ccccc2CO,sangster (1994) ,2.39,14,15,1,1,1,0,0,0,0,0,,17,
mioflazine,C29H30Cl2F2N4O2,not,NC(=O)C1CN(CCN1CCCC(c2ccc(F)cc2)c3ccc(F)cc3)CC(=O)Nc4c(Cl)cccc4Cl,biobyte (1995) ,5.26,29,30,4,2,0,0,2,2,0,0,,39,
"n-[3-[[3-(4,6-diamino-2,2-dimethyl-1,3,5-triazin-1-yl)phenyl]methoxy]phenyl]acetamide",C20H24N6O2,079508-86-4,CC(=O)Nc1cccc(OCc2cccc(c2)N3C(=NC(=NC3(C)C)N)N)c1,pomona (1987) ,1.15,20,24,6,2,0,0,0,0,0,0,,28,
tetrafluthrin,C17H14Cl1F7O2,079538-32-2,Cc1c(F)c(F)c(COC(=O)C2C(\C=C(/Cl)C(F)(F)F)C2(C)C)c(F)c1F,"tomlin,c (1997) ",6.5,17,14,0,2,0,0,7,1,0,0,,27,
etobenzanid,C16H15Cl2N1O3,079540-50-4,CCOCOc1ccc(C(=O)Nc2c(Cl)c(Cl)ccc2)cc1,"tomlin,c (1997) ",4.3,16,15,1,3,0,0,0,2,0,0,,22,
"4-methoxy-n,n-di(propan-2-yl)benzamide",C14H21N1O2,079606-43-2,COc1ccc(cc1)C(=O)N(C(C)C)C(C)C,"suryanarayana,mvs et al. (1991) ",2.8,14,21,1,2,0,0,0,0,0,0,,17,
fluazinam,C13H4Cl2F6N4O4,079622-59-6,[O-][N+](=O)c1cc(c(Cl)c(c1Nc2ncc(cc2Cl)C(F)(F)F)[N+]([O-])=O)C(F)(F)F,"tomlin,c (2003) ",4.01,13,4,4,4,0,0,6,2,0,0,,29,
"6,8-difluoro-1-(2-fluoroethyl)-7-(4-methylpiperazin-1-yl)-4-oxoquinoline-3-carboxylic acid",C17H18F3N3O3,079660-72-3,CN1CCN(CC1)c2c(F)cc3C(=O)C(=CN(CCF)c3c2F)C(O)=O,"ross,dl et al. (1992); ion-corrected ",0.24,17,18,3,3,0,0,3,0,0,0,,26,
loratadine,C22H23Cl1N2O2,079794-75-5,CCOC(=O)N1CCC(CC1)=C2c3ccc(Cl)cc3CCc4cccnc24,sangster (1994) ,5.2,22,23,2,2,0,0,0,1,0,0,,27,
morpholino-daunorubicin,C31H35N1O11,080844-67-3,CC1C(C(CC(O1)OC2CC(CC3=C2C(=C4C(=C3O)C(=O)C5=C(C4=O)C(=CC=C5)OC)O)(C(=O)C)O)N6CCOCC6)O,biobyte starlist (2009) ,2.31,31,35,1,11,0,0,0,0,0,0,,43,
"3-methyl-2-oxido-4-(phenylmethyl)-1,2,5-oxadiazol-2-ium",C10H10N2O2,079911-03-8,Cc1c(Cc2ccccc2)no[n+]1[O-],"calvino,r et al. (1992) ",2.08,10,10,2,2,0,0,0,0,0,0,,14,
"2-(2,3-dihydro-1,4-benzodioxin-2-yl)-4,5-dihydro-1h-imidazole",C11H12N2O2,079944-58-4,C1CN=C(N1)C2COc3ccccc3O2,biobyte starlist (2009) ,1.63,11,12,2,2,0,0,0,0,0,0,,15,
hexaconazole,C14H17Cl2N3O1,079983-71-4,CCCCC(O)(Cn1cncn1)c2ccc(Cl)cc2Cl,"tomlin,c (1997) ",3.9,14,17,3,1,0,0,0,2,0,0,,20,
134507-59-8,C16H15N3,080012-43-7,NC1=NCC2N1c3ccccc3Cc4ccccc24,biobyte (1995) ,3.51,16,15,3,0,0,0,0,0,0,0,,19,
"3-tert-butyl-1-[4-(phenoxy)-2,6-di(propan-2-yl)phenyl]thiourea",C23H32N2O1S1,080060-09-9,CC(C)c1cc(Oc2ccccc2)cc(C(C)C)c1NC(=S)NC(C)(C)C,"hansch,c et al. (1995) ",6,23,32,2,1,1,0,0,0,0,0,,27,
"3,5-diethyladamantan-1-amine",C14H25N1,080121-60-4,CCC12CC3CC(N)(C1)CC(CC)(C3)C2,"hansch,c & leo,aj (1985) ",4.36,14,25,1,0,0,0,0,0,0,0,,15,
3-propyladamantan-1-amine,C13H23N1,080121-61-5,CCCC12CC3CC(CC(N)(C3)C1)C2,"hansch,c & leo,aj (1985) ",3.76,13,23,1,0,0,0,0,0,0,0,,14,
"3-bromo-n-[(1-ethylpyrrolidin-2-yl)methyl]-2,6-dimethoxybenzamide",C16H23Br1N2O3,080125-14-0,CCN1CCCC1CNC(=O)c2c(OC)ccc(Br)c2OC,"hoegberg,t et al. 1986 ",2.1,16,23,2,3,0,0,0,0,1,0,,22,
"1-methyl-4-thiophen-2-yl-3,6-dihydro-2h-pyridine",C10H13N1S1,080353-09-9,CN1CCC(=CC1)c2sccc2,sangster (1993) ,2.51,10,13,1,0,1,0,0,0,0,0,,12,
3-(1h-indol-3-ylsulfanyl)propanoic acid,C11H11N1O2S1,080412-20-0,OC(=O)CCSc1c[nH]c2ccccc12,"hansch,c & leo,aj (1985) ",2.15,11,11,1,2,1,0,0,0,0,0,,15,
"n-(3,6-dihydro-2h-pyridin-1-yl)furan-2-carboxamide",C10H12N2O2,080431-14-7,O=C(NN1CCC=CC1)c2occc2,sangster (1993) ,0.81,10,12,2,2,0,0,0,0,0,0,,14,
"n-(3,6-dihydro-2h-pyridin-1-yl)thiophene-2-carboxamide",C10H12N2O1S1,080431-15-8,O=C(NN1CCC=CC1)c2sccc2,sangster (1993) ,1.88,10,12,2,1,1,0,0,0,0,0,,14,
"acetamide, n,n'-1h-1,2,4-triazole-3,5-diylbis[2,",C6H3F6N5O2,080616-56-4,C1(=NC(=NN1)NC(=O)C(F)(F)F)NC(=O)C(F)(F)F,"hansch,c & leo,aj (1985) ",0.62,6,3,5,2,0,0,6,0,0,0,,19,
"propanamide, n,n'-1h-1,2,4-triazole-3,5-diylbis-",C8H13N5O2,080616-57-5,CCC(=O)Nc1[nH]nc(NC(=O)CC)n1,"hansch,c & leo,aj (1985) ",0.07,8,13,5,2,0,0,0,0,0,0,,15,
1-(3-phenylpropoxy)-3-(propan-2-ylamino)propan-2-ol,C15H25N1O2,080617-74-9,CC(C)NCC(O)COCCCc1ccccc1,biobyte (1995) ,1.94,15,25,1,2,0,0,0,0,0,0,,18,
"2-propanol, 1-[(1,1-dimethylethyl)amino]-3-(3-ph",C16H27N1O2,080617-76-1,CC(C)(C)NCC(O)COCCCc1ccccc1,biobyte (1995) ,2.58,16,27,1,2,0,0,0,0,0,0,,19,
"2-propanol, 1-[(1,1-dimethylethyl)amino]-3-[(3-p",C16H25N1O2,080617-78-3,CC(C)(C)NCC(O)COCC=Cc1ccccc1,"mauleon,d et al. (1988) ",2.29,16,25,1,2,0,0,0,0,0,0,,19,
"1-(tert-butylamino)-3-(1,2,3,4-tetrahydronaphthalen-1-yloxy)propan-2-ol",C17H27N1O2,080617-86-3,CC(C)(C)NCC(O)COC1CCCc2ccccc12,"mauleon,d et al. (1988) ",3.55,17,27,1,2,0,0,0,0,0,0,,20,
"2-[4-[3-(4-fluorophenyl)-6-(trifluoromethyl)-2,3-dihydro-1h-inden-1-yl]piperazin-1-yl]ethanol",C22H24F4N2O1,080680-06-4,OCCN1CCN(CC1)C2CC(c3ccc(F)cc3)c4ccc(cc24)C(F)(F)F,"hansch,c et al. (1995) ",4.39,22,24,2,1,0,0,4,0,0,0,,29,
"methyl 4-oxo-6,7,8,9-tetrahydropyrido[1,2-a]pyrimidine-3-carboxylate",C10H12N2O3,080715-99-7,COC(=O)C1=CN=C2CCCCN2C1=O,sangster (1994) ,-0.25,10,12,2,3,0,0,0,0,0,0,,15,
"5,12-naphthacenedione pyranosyl derivative",C31H35N1O12,080790-68-7,CCOC(=O)CNC1CC(OC(C1O)C)OC2CC(CC3=C2C(=C4C(=C3O)C(=O)C5=C(C4=O)C(=CC=C5)OC)O)(C(=O)C)O,sangster (1993) ,1.73,31,35,1,12,0,0,0,0,0,0,,44,
1-ethoxy-4-[2-methyl-1-[[3-(phenoxy)phenyl]methoxy]propan-2-yl]benzene,C25H28O3,080844-07-1,CCOc1ccc(cc1)C(C)(C)COCc2cccc(Oc3ccccc3)c2,"tomlin,c (1994) ",7.05,25,28,0,3,0,0,0,0,0,0,,28,
2-ethyl-2-phenylpropanediamide,C11H14N2O2,080866-90-6,CCC(C(N)=O)(C(N)=O)c1ccccc1,"hansch,c et al. (1995) ",0.13,11,14,2,2,0,0,0,0,0,0,,15,
"3-amino-1,1-diethylurea",C5H13N3O1,080894-32-2,CCN(CC)C(=O)NN,"hansch,c & leo,aj (1985) ",-0.62,5,13,3,1,0,0,0,0,0,0,,9,
(2-hydroxy-2-methyl-3-naphthalen-1-yloxypropyl) 2-methylprop-2-enoate,C18H20O4,080916-23-0,CC(=C)C(=O)OCC(C)(O)COc1cccc2ccccc12,sangster (1993) ,3.77,18,20,0,4,0,0,0,0,0,0,,22,
"3-buten-2-one,4-(3-cf3-phenyl)-",C11H9F3O1,080992-92-3,CC(=O)C=Cc1cc(C(F)(F)F)ccc1,"yamagami,c et al. (1998) ",3.03,11,9,0,1,0,0,3,0,0,0,,15,
"3-buten-2-one,4-(4-cf3-phenyl)-",C11H9F3O1,080992-93-4,CC(=O)C=Cc1ccc(C(F)(F)F)cc1,"yamagami,c et al. (1998) ",3.13,11,9,0,1,0,0,3,0,0,0,,15,
2-[(5-methylfuran-2-yl)methylidene]propanedinitrile,C9H6N2O1,081020-79-3,Cc1oc(cc1)C=C(C#N)C#N,"balaz,s et al. (1985) ",2.03,9,6,2,1,0,0,0,0,0,0,,12,
clarithromycin,C38H69N1O13,081103-11-9,CC[C@H]1OC(=O)[C@H](C)[C@@H](O[C@H]2C[C@@](C)(OC)[C@@H](O)[C@H](C)O2)[C@H](C)[C@@H](O[C@@H]3O[C@H](C)C[C@@H]([C@H]3O)N(C)C)[C@@](C)(C[C@@H](C)C(=O)[C@H](C)[C@@H](O)[C@]1(C)O)OC,"mcfarland,jw et al. (1997) ",3.16,38,69,1,13,0,0,0,0,0,0,,52,
"3,5-dihydroxy-7-[6-hydroxy-2-methyl-8-(2-methylbutanoyloxy)-1,2,6,7,8,8a-hexahydronaphthalen-1-yl]heptanoic acid",C23H36O7,081093-37-0,CCC(C)C(=O)OC1CC(O)C=C2C=CC(C)C(CCC(O)CC(O)CC(O)=O)C12,biobyte starlist (2009) ,2.18,23,36,0,7,0,0,0,0,0,0,,30,
"2-(2,3-dihydro-1,4-benzodioxin-2-ylmethyl)-1-ethylimidazole",C14H16N2O2,081167-16-0,CCn1ccnc1CC2COc3ccccc3O2,biobyte starlist (2009) ,2.31,14,16,2,2,0,0,0,0,0,0,,18,
2-(4-methyl-5-oxo-4-propan-2-yl-1h-imidazol-2-yl)pyridine-3-carboxylic acid,C13H15N3O3,081334-34-1,CC(C)C1(C)N=C(NC1=O)c2ncccc2C(O)=O,"comer,j et al. (1995) ",0.22,13,15,3,3,0,0,0,0,0,0,,19,
2-(4-methyl-5-oxo-4-propan-2-yl-1h-imidazol-2-yl)quinoline-3-carboxylic acid,C17H17N3O3,081335-37-7,CC(C)C1(C)N=C(NC1=O)c2nc3ccccc3cc2C(O)=O,"chamberlain,k et al. (1996) ",1.86,17,17,3,3,0,0,0,0,0,0,,23,
fluroxypyr-meptyl,C15H21Cl2F1N2O3,081406-37-3,CCCCCCC(C)OC(=O)COc1nc(F)c(Cl)c(N)c1Cl,"tomlin,c (1997) ",4.53,15,21,2,3,0,0,1,2,0,0,,23,
4-ethoxypyrazole,C5H8N2O1,081437-10-7,CCOc1c[nH]nc1,"hansch,c et al. (1995) ",0.8,5,8,2,1,0,0,0,0,0,0,,8,
"3,12-epoxy-12h-pyrano[4,3-j]-1,2-benzodioxepin-1",C15H24O5,081496-81-3,O1OC23C4OC(O)C(C)C2CCC(C)C3CCC1(C)O4,sangster (1994) ,2.19,15,24,0,5,0,0,0,0,0,0,,20,
"3,5-dimethylphenylhippurate",C17H17N1O3,081592-15-6,Cc1cc(C)cc(c1)C(NC(=O)c2ccccc2)C([O-])=O,"hansch,c & leo,aj (1985) ",3.4,17,17,1,3,0,0,0,0,0,0,,21,
"2,5-dichloro-p-cymene",C10H12Cl2,081686-41-1,CC(C)c1c(Cl)cc(C)c(Cl)c1,"lun,r et al. (1997) ",5.6,10,12,0,0,0,0,0,2,0,0,,12,
"2,3,6-trichloro-p-cymene",C10H11Cl3,081686-42-2,Clc1c(Cl)c(C)c(Cl)cc1C(C)C,"lun,r et al. (1997) ",6.2,10,11,0,0,0,0,0,3,0,0,,13,
"2,3,5,6-tetrachloro-p-cymene",C10H10Cl4,081686-43-3,Clc1c(Cl)c(C)c(Cl)c(Cl)c1C(C)C,"lun,r et al. (1997) ",6.8,10,10,0,0,0,0,0,4,0,0,,14,
"2,3-dichloro-p-cymene",C10H12Cl2,081686-44-4,Clc1c(Cl)c(C)ccc1C(C)C,"lun,r et al. (1997) ",5.5,10,12,0,0,0,0,0,2,0,0,,12,
clomazone,C12H14Cl1N1O2,081777-89-1,CC1(C)CON(Cc2ccccc2Cl)C1=O,"tomlin,c (1994) ",2.5,12,14,1,2,0,0,0,1,0,0,,16,
"6-[4-(3,4-dimethoxybenzoyl)piperazin-1-yl]-3,4-dihydro-1h-quinolin-2-one",C22H25N3O4,081840-15-5,COc1ccc(cc1OC)C(=O)N2CCN(CC2)c3ccc4NC(=O)CCc4c3,biobyte starlist (2009) ,1.04,22,25,3,4,0,0,0,0,0,0,,29,
1-[3-(benzoylsulfanyl)-2-methylpropanoyl]-4-phenylsulfanylpyrrolidine-2-carboxylic acid,C22H23N1O4S2,081872-10-8,CC(CSC(=O)c1ccccc1)C(=O)N2CC(CC2C(O)=O)Sc3ccccc3,"ranadive,sa et al. (1992) ",4.4,22,23,1,4,2,0,0,0,0,0,,29,
n-(2-hydroxyethyl)-2-(2-nitroimidazol-1-yl)propanamide,C8H12N4O4,081892-67-3,CC(n1ccnc1[N+]([O-])=O)C(=O)NCCO,sangster (1993) ,-1.16,8,12,4,4,0,0,0,0,0,0,,16,
triasulfuron,C14H16Cl1N5O5S1,082097-50-5,COc1nc(C)nc(NC(=O)N[S](=O)(=O)c2ccccc2OCCCl)n1,"tomlin,c (1997); ph 5 ",1.1,14,16,5,5,1,0,0,1,0,0,,26,
inabenfide,C19H15Cl1N2O2,082211-24-3,OC(c1ccccc1)c2cc(Cl)ccc2NC(=O)c3ccncc3,"tomlin,c (1997) ",3.13,19,15,2,2,0,0,0,1,0,0,,24,
"dibenzodioxin,1,2,3,6,9-pentachloro",C12H3Cl5O2,082291-34-7,c32c(Cl)c(Cl)c(Cl)cc3Oc1c(c(Cl)ccc1Cl)O2,biobyte starlist (2009) ,6.24,12,3,0,2,0,0,0,5,0,0,,19,
ganciclovir,C9H13N5O4,082410-32-0,NC1=NC(=O)c2ncn(COC(CO)CO)c2N1,sangster (1993) ,-1.66,9,13,5,4,0,0,0,0,0,0,,18,
2-hydroxy-2-[4-(2-methylpropyl)phenyl]propanoic acid,C13H18O3,082412-82-6,CC(C)Cc1ccc(cc1)C(C)(O)C(O)=O,"kuchar,m et al. (1985) ",2.75,13,18,0,3,0,0,0,0,0,0,,16,
83380-47-6,C18H20F1N3O4,082419-36-1,CC1COc2c(N3CCN(C)CC3)c(F)cc4C(=O)C(=CN1c24)C(O)=O,"hansch,c et al. (1995) ",-0.39,18,20,3,4,0,0,1,0,0,0,,26,
"(4-cyanophenyl)methyl 2,2-dimethyl-3-(2-methylprop-1-enyl)cyclopropane-1-carboxylate",C18H21N1O2,082535-32-8,CC(C)=CC1C(C(=O)OCc2ccc(cc2)C#N)C1(C)C,"hansch,c & leo,aj (1985) ",4.91,18,21,1,2,0,0,0,0,0,0,,21,
"2,6-dimethoxy-n-[3-(3-methylpentan-3-yl)-1,2-oxazol-5-yl]benzamide",C18H24N2O4,082558-50-7,CCC(C)(CC)c1cc(NC(=O)c2c(OC)cccc2OC)on1,"tomlin,c (2003) ",3.94,18,24,2,4,0,0,0,0,0,0,,24,
"ethyl 3-[[(2,2-dimethyl-3h-1-benzofuran-7-yl)oxycarbonyl-methylamino]sulfanyl-propan-2-ylamino]propanoate",C20H30N2O5S1,082560-54-1,CCOC(=O)CCN(SN(C)C(=O)Oc1cccc2CC(C)(C)Oc12)C(C)C,"tomlin,c (1994) ",4.3,20,30,2,5,1,0,0,0,0,0,,28,
2-(3-methoxyphenyl)indolizine,C15H13N1O1,082682-68-6,COc1cccc(c1)c2cn3ccccc3c2,"hansch,c et al. (1995) ",4.14,15,13,1,1,0,0,0,0,0,0,,17,
benzofenap,C22H20Cl2N2O3,082692-44-2,Cn1nc(C)c(C(=O)c2ccc(Cl)c(C)c2Cl)c1OCC(=O)c3ccc(C)cc3,biobyte (1995) ,4.69,22,20,2,3,0,0,0,2,0,0,,29,
1-cyclooctylpropan-2-amine,C11H23N1,082700-02-5,CC(N)CC1CCCCCCC1,sangster (1993) ,3.7,11,23,1,0,0,0,0,0,0,0,,12,
"n(n-me-(4me-ph)carbamylthio)methomyl""",C14H19N3O3S2,082774-00-3,CSC(C)=NOC(=O)N(C)SN(C)C(=O)c1ccc(C)cc1,"hansch,c & leo,aj (1985) ",2.5,14,19,3,3,2,0,0,0,0,0,,22,
"n(n-me(phenyl)carbamylthio)methomyl""",C13H17N3O3S2,082774-01-4,CC(=NOC(=O)N(C)SN(C)C(=O)c1ccccc1)SC,"hansch,c & leo,aj (1985) ",2.2,13,17,3,3,2,0,0,0,0,0,,21,
"n(n-me(4-clph)carbamylthio)methomyl""",C13H16Cl1N3O3S2,082774-06-9,CC(=NOC(=O)N(C)SN(C)C(=O)c1ccc(Cl)cc1)SC,"hansch,c & leo,aj (1985) ",2.6,13,16,3,3,2,0,0,1,0,0,,22,
"n(n-me(2-clph)carbamylthio)methomyl""",C13H16Cl1N3O3S2,082774-07-0,CC(=NOC(=O)N(C)SN(C)C(=O)c1ccccc1Cl)SC,"hansch,c & leo,aj (1985) ",2.5,13,16,3,3,2,0,0,1,0,0,,22,
"n(n-me(3-clph)carbamylthio)methomyl""",C13H16Cl1N3O3S2,082774-14-9,CC(=NOC(=O)N(C)SN(C)C(=O)c1cccc(Cl)c1)SC,"hansch,c & leo,aj (1985) ",2.7,13,16,3,3,2,0,0,1,0,0,,22,
"n(n-me(3-cf3ph)carbamylthio)methomyl""",C14H16F3N3O3S2,082774-15-0,CC(=NOC(=O)N(C)SN(C)C(=O)c1cc(C(F)(F)F)ccc1)SC,"hansch,c & leo,aj (1985) ",2.5,14,16,3,3,2,0,3,0,0,0,,25,
"n(nme(24diclph)carbamylthio)methomyl""",C13H15Cl2N3O3S2,082774-16-1,CC(=NOC(=O)N(C)SN(C)C(=O)c1ccc(Cl)cc1Cl)SC,"hansch,c & leo,aj (1985) ",3.2,13,15,3,3,2,0,0,2,0,0,,23,
"n(n-ipr(4me-ph)carbamylthio)methomyl""",C16H23N3O3S2,082774-17-2,CN(SN(C(C)C)C(=O)c1ccc(C)cc1)C(=O)ON=C(C)SC,"hansch,c & leo,aj (1985) ",3.4,16,23,3,3,2,0,0,0,0,0,,24,
"n(n-bu-(phenyl)carbamylthio)methomyl""",C16H23N3O3S2,082774-18-3,CN(SN(CCCC)C(=O)c1ccccc1)C(=O)ON=C(C)SC,"hansch,c & leo,aj (1985) ",3.4,16,23,3,3,2,0,0,0,0,0,,24,
"n(nme(26diclph)carbamylthio)methomyl""",C13H15Cl2N3O3S2,082784-14-3,CC(=NOC(=O)N(C)SN(C)C(=O)c1c(Cl)cccc1Cl)SC,"hansch,c & leo,aj (1985) ",2.6,13,15,3,3,2,0,0,2,0,0,,23,
2-[5-hydroxy-2-(3-hydroxypropyl)cyclohexyl]-5-(2-methyloctan-2-yl)phenol,C24H40O3,083002-04-4,CCCCCCC(C)(C)c1ccc(C2CC(O)CCC2CCCO)c(O)c1,sangster (1993) ,6.13,24,40,0,3,0,0,0,0,0,0,,27,
"methyl 2-[(4,6-dimethoxypyrimidin-2-yl)carbamoylsulfamoylmethyl]benzoate",C16H18N4O7S1,104466-83-3,COC(=O)c1ccccc1C[S](=O)(=O)NC(=O)Nc2nc(OC)cc(OC)n2,biobyte starlist (2009) ,2.4,16,18,4,7,1,0,0,0,0,0,,28,
"1h-pyrrolizine-1-carboxylic acid, 5-(4-chloroben",C16H14Cl1N1O3,083073-36-3,Cc1c(C(=O)c3ccc(Cl)cc3)n2c(C(C(=O)(O))CC2)c1,sangster (1994) ,3.6,16,14,1,3,0,0,0,1,0,0,,21,
"6-ethyl-5-(4-fluorobenzoyl)-2,3-dihydro-1h-pyrrolizine-1-carboxylic acid",C17H16F1N1O3,083073-37-4,CCc1cc2C(CCn2c1C(=O)c3ccc(F)cc3)C(O)=O,sangster (1994) ,3.63,17,16,1,3,0,0,1,0,0,0,,22,
"benzobicyclo(221)heptene,2en-nh2-7cf3",C12H12F3N1,086022-72-2,c1c(C(F)(F)F)cc2c(C3C(N)CC2C3)c1,"hansch,c & leo,aj (1985) ",2.85,12,12,1,0,0,0,3,0,0,0,,16,
teflubenzuron,C14H6Cl2F4N2O2,083121-18-0,Fc1cccc(F)c1C(=O)NC(=O)Nc2cc(Cl)c(F)c(Cl)c2F,"saito,h et al. (1993) ",4.56,14,6,2,2,0,0,4,2,0,0,,24,
tr-crotyl-chrysanthemate,C14H22O2,083123-89-1,CC(C)=CC1C(C(=O)OCC=CC)C1(C)C,"hansch,c & leo,aj (1985) ",5.09,14,22,0,2,0,0,0,0,0,0,,16,
alanycarb,C17H25N3O4S2,083130-01-2,CCOC(=O)CCN(Cc1ccccc1)SN(C)C(=O)O\N=C(\C)SC,"tomlin,c (1994) ",3.43,17,25,3,4,2,0,0,0,0,0,,26,
"5-[(2,6-dimethoxypyridin-4-yl)methyl]pyrimidine-2,4-diamine",C12H15N5O2,083157-99-7,COc1cc(Cc2cnc(N)nc2N)cc(OC)n1,"hansch,c & leo,aj (1985) ",1.64,12,15,5,2,0,0,0,0,0,0,,19,
"5-[[4-methoxy-3,5-bis(phenylmethoxy)phenyl]methyl]pyrimidine-2,4-diamine",C26H26N4O3,083158-02-5,COc1c(OCc2ccccc2)cc(Cc3cnc(N)nc3N)cc1OCc4ccccc4,"hansch,c & leo,aj (1985) ",3.89,26,26,4,3,0,0,0,0,0,0,,33,
"5-[[3-methoxy-4-(phenylmethoxy)phenyl]methyl]pyrimidine-2,4-diamine",C19H20N4O2,083158-06-9,COc1cc(Cc2cnc(N)nc2N)ccc1OCc3ccccc3,"hansch,c & leo,aj (1985) ",2.66,19,20,4,2,0,0,0,0,0,0,,25,
"n-(2,4-difluorophenyl)-2-[3-(trifluoromethyl)phenoxy]pyridine-3-carboxamide",C19H11F5N2O2,083164-33-4,Fc1ccc(NC(=O)c2cccnc2Oc3cccc(c3)C(F)(F)F)c(F)c1,"tomlin,c (1997) ",4.9,19,11,2,2,0,0,5,0,0,0,,28,
"24-nh2pyrimidine,5(3,5meo-2-cl)benzyl",C13H15Cl1N4O2,083166-74-9,Clc2c(OC)cc(OC)cc2Cc1cnc(N)nc1N,"hansch,c & leo,aj (1985) ",2.13,13,15,4,2,0,0,0,1,0,0,,20,
"5-dimethylaminodiazenylbenzene-1,3-dicarboxamide",C10H13N5O2,083293-76-9,CN(C)N=Nc1cc(cc(c1)C(N)=O)C(N)=O,"hansch,c & leo,aj (1985) ",0.22,10,13,5,2,0,0,0,0,0,0,,17,
ppg1055,C17H12Cl1F3N2O6,083430-06-2,CC(=NOCC(=O)(O))c1cc(Oc2ccc(C(F)(F)F)cc2Cl)ccc1N(=O)(=O),biobyte (1995) ,4.3,17,12,2,6,0,0,3,1,0,0,,29,
2-(dibutylamino)-1-phenylethanol,C16H27N1O1,083593-63-9,CCCCN(CCCC)CC(O)c1ccccc1,"hansch,c et al. (1995) ",3.16,16,27,1,1,0,0,0,0,0,0,,18,
uniconazole,C15H18Cl1N3O1,083657-22-1,CC(C)(C)C(O)\C(=C/c1ccc(Cl)cc1)n2cncn2,"tomlin,c (1997) ",3.67,15,18,3,1,0,0,0,1,0,0,,20,
diniconazole,C15H17Cl2N3O1,083657-24-3,CC(C)(C)C(O)\C(=C/c1ccc(Cl)cc1Cl)n2cncn2,"tomlin,c (1994) ",4.3,15,17,3,1,0,0,0,2,0,0,,21,