Names,Formula,CAS No,SMILES,Reference,Exp logp,C,H,N,O,S,P,F,Cl,Br,I,,,
"1,1,1-trifluoro-n-(3-methylsulfonylphenyl)methanesulfonamide",C8H8F3N1O4S2,023375-08-8,C[S](=O)(=O)c1cccc(N[S](=O)(=O)C(F)(F)F)c1,"hansch,c & leo,aj (1985) ",1.85,8,8,1,4,2,0,3,0,0,0,,18,
"1,1,1-trifluoro-n-(4-methylsulfonylphenyl)methanesulfonamide",C8H8F3N1O4S2,023375-10-2,C[S](=O)(=O)c1ccc(N[S](=O)(=O)C(F)(F)F)cc1,"hansch,c & leo,aj (1985) ",1.99,8,8,1,4,2,0,3,0,0,0,,18,
"n-(3-acetylphenyl)-1,1,1-trifluoromethanesulfonamide",C9H8F3N1O3S1,023375-11-3,CC(=O)c1cccc(N[S](=O)(=O)C(F)(F)F)c1,"hansch,c & leo,aj (1985) ",2.78,9,8,1,3,1,0,3,0,0,0,,17,
m-oh cf3-methanesulfonanilide,C7H6F3N1O3S1,023375-12-4,c1cc(O)cc(NS(=O)(=O)C(F)(F)F)c1,"hansch,c & leo,aj (1985) ",2.51,7,6,1,3,1,0,3,0,0,0,,15,
"n-(4-acetylphenyl)-1,1,1-trifluoromethanesulfonamide",C9H8F3N1O3S1,023383-94-0,CC(=O)c1ccc(N[S](=O)(=O)C(F)(F)F)cc1,"hansch,c & leo,aj (1985) ",2.83,9,8,1,3,1,0,3,0,0,0,,17,
"2,4-dicl cf3-methanesulfonanilide",C7H4Cl2F3N1O2S1,023383-96-2,Clc1cc(Cl)ccc1NS(=O)(=O)C(F)(F)F,"hansch,c & leo,aj (1985) ",3.88,7,4,1,2,1,0,3,2,0,0,,16,
"1,1,1-trifluoro-n-(4-fluorophenyl)methanesulfonamide",C7H5F4N1O2S1,023384-00-1,Fc1ccc(N[S](=O)(=O)C(F)(F)F)cc1,"hansch,c & leo,aj (1985) ",3.25,7,5,1,2,1,0,4,0,0,0,,15,
m-fluoro cf3-methanesulfonanilide,C7H5F4N1O2S1,023384-01-2,c1cc(NS(=O)(=O)C(F)(F)F)cc(F)c1,"hansch,c & leo,aj (1985) ",3.42,7,5,1,2,1,0,4,0,0,0,,15,
m-chloro cf3-methanesulfonanilide,C7H5Cl1F3N1O2S1,023384-03-4,Clc1cccc(NS(=O)(=O)C(F)(F)F)c1,"hansch,c & leo,aj (1985) ",4,7,5,1,2,1,0,3,1,0,0,,15,
p-chloro cf3-methanesulfonanilide,C7H5Cl1F3N1O2S1,023384-04-5,Clc1ccc(NS(=O)(=O)C(F)(F)F)cc1,"hansch,c & leo,aj (1985) ",3.96,7,5,1,2,1,0,3,1,0,0,,15,
"n-(3-bromophenyl)-1,1,1-trifluoromethanesulfonamide",C7H5Br1F3N1O2S1,023384-08-9,FC(F)(F)[S](=O)(=O)Nc1cccc(Br)c1,"hansch,c & leo,aj (1985) ",3.82,7,5,1,2,1,0,3,0,1,0,,15,
p-iodo cf3-methanesulfonanilide,C7H5F3I1N1O2S1,023384-10-3,c1c(I)ccc(NS(=O)(=O)C(F)(F)F)c1,"hansch,c & leo,aj (1985) ",4.39,7,5,1,2,1,0,3,0,0,1,,15,
"1,1,1-trifluoro-n-[3-(trifluoromethyl)phenyl]methanesulfonamide",C8H5F6N1O2S1,023384-11-4,FC(F)(F)c1cccc(N[S](=O)(=O)C(F)(F)F)c1,"hansch,c & leo,aj (1985) ",4.5,8,5,1,2,1,0,6,0,0,0,,18,
p-cf3 cf3-methanesulfonanilide,C8H5F6N1O2S1,023384-12-5,c1c(C(F)(F)F)ccc(NS(=O)(=O)C(F)(F)F)c1,"hansch,c & leo,aj (1985) ",4.47,8,5,1,2,1,0,6,0,0,0,,18,
"n-(2,4-difluorophenyl)-1,1,1-trifluoromethanesulfonamide",C7H4F5N1O2S1,023384-22-7,Fc1ccc(N[S](=O)(=O)C(F)(F)F)c(F)c1,"hansch,c & leo,aj (1985) ",3.06,7,4,1,2,1,0,5,0,0,0,,16,
m-meo cf3-methanesulfonanilide,C8H8F3N1O3S1,023384-33-0,COc1cc(NS(=O)(=O)C(F)(F)F)ccc1,"hansch,c & leo,aj (1985) ",3.13,8,8,1,3,1,0,3,0,0,0,,16,
"1,1,1-trifluoro-n-(4-methoxyphenyl)methanesulfonamide",C8H8F3N1O3S1,023384-34-1,COc1ccc(N[S](=O)(=O)C(F)(F)F)cc1,"hansch,c & leo,aj (1985) ",3,8,8,1,3,1,0,3,0,0,0,,16,
23441-75-0,C14H10N2O1,023441-75-0,O=C1Nc2ccccc2C(=N1)c3ccccc3,sangster (1993) ,1.91,14,10,2,1,0,0,0,0,0,0,,17,
"9-methylpyrido[2,1-b]pyrimidin-4-one",C9H8N2O1,023443-12-1,CC1=CC=CN2C(=O)C=CN=C12,sangster (1994) ,0.79,9,8,2,1,0,0,0,0,0,0,,12,
"7-methylpyrido[2,1-b]pyrimidin-4-one",C9H8N2O1,085653-81-2,CC1=CN2C(=O)C=CN=C2C=C1,sangster (1994) ,0.56,9,8,2,1,0,0,0,0,0,0,,12,
4-dimethylaminodiazenylbenzonitrile,C9H10N4,023456-95-3,CN(C)N=Nc1ccc(cc1)C#N,"hansch,c & leo,aj (1985) ",2.39,9,10,4,0,0,0,0,0,0,0,,13,
n-(3-hydroxyphenyl)-2-phenylacetamide,C14H13N1O2,023478-26-4,Oc1cccc(NC(=O)Cc2ccccc2)c1,"yamagami,c et al. (1984) ",2.22,14,13,1,2,0,0,0,0,0,0,,17,
"4-diethoxyphosphinothioyloxy-n,n-diethyl-6-methylpyrimidin-2-amine",C13H24N3O3P1S1,023505-41-1,CCO[P](=S)(OCC)Oc1cc(C)nc(n1)N(CC)CC,"hansch,c et al. (1995) ",4.85,13,24,3,3,1,1,0,0,0,0,,21,
heptenophos,C9H12Cl1O4P1,023560-59-0,CO[P](=O)(OC)OC1=C(Cl)C2C=CCC12,"tomlin,c (1997) ",2.32,9,12,0,4,0,1,0,1,0,0,,15,
methyl n-[[2-(methoxycarbonylcarbamothioylamino)phenyl]carbamothioyl]carbamate,C12H14N4O4S2,023564-05-8,COC(=O)NC(=S)Nc1ccccc1NC(=S)NC(=O)OC,"hansch,c et al. (1995) ",1.4,12,14,4,4,2,0,0,0,0,0,,22,
2-(5-methyl-2-nitroimidazol-1-yl)ethanol,C6H9N3O3,023571-38-2,Cc1cnc(n1CCO)[N+]([O-])=O,sangster (1993) ,0.18,6,9,3,3,0,0,0,0,0,0,,12,
hexyl pyridine-3-carboxylate,C12H17N1O2,023597-82-2,CCCCCCOC(=O)c1cccnc1,"houk,j & guy,rh (1988) ",3.51,12,17,1,2,0,0,0,0,0,0,,15,
[6-(bis(phosphonomethyl)amino)hexyl-(phosphonomethyl)amino]methylphosphonic acid,C10H28N2O12P4,023605-74-5,O[P](O)(=O)CN(CCCCCCN(C[P](O)(O)=O)C[P](O)(O)=O)C[P](O)(O)=O,"gledhill,we & feijtel,tcj (1992) ",-4.43,10,28,2,12,0,4,0,0,0,0,,28,
2-chloro-6-co2me-pyrazine,C6H5Cl1N2O2,023611-75-8,Clc1cncc(C(=O)OC)n1,"yamagami,c & takao,n (1991) ",0.47,6,5,2,2,0,0,0,1,0,0,,11,
ethyl 4-ethoxybenzoate,C11H14O3,023676-09-7,CCOC(=O)c1ccc(OCC)cc1,tscats ,3.6,11,14,0,3,0,0,0,0,0,0,,14,
"1-(2,4-dimethoxyphenyl)propan-2-amine",C11H17N1O2,023690-13-3,COc1ccc(CC(C)N)c(OC)c1,"hansch,c & leo,aj (1985) ",1.75,11,17,1,2,0,0,0,0,0,0,,14,
1-[(2-methyl-1h-indol-4-yl)oxy]-3-(propan-2-ylamino)propan-2-ol,C15H22N2O2,023694-81-7,CC(C)NCC(O)COc1cccc2[nH]c(C)cc12,"recanatini,m (1992) ",2.3,15,22,2,2,0,0,0,0,0,0,,19,
phenyl-piperidin-2-ylmethanol,C12H17N1O1,023702-98-9,OC(C1CCCCN1)c2ccccc2,"hansch,c et al. (1995) ",1.58,12,17,1,1,0,0,0,0,0,0,,14,
"2-(1,3-benzodioxol-5-yl)-2-ethylbutanamide",C13H17N1O3,023742-02-1,CCC(CC)(C(N)=O)c1ccc2OCOc2c1,"hansch,c & leo,aj (1985) ",1.59,13,17,1,3,0,0,0,0,0,0,,17,
"2,2,5,5-tetrakis(trifluoromethyl)-1h-imidazol-4-amine",C7H3F12N3,023757-42-8,NC1=NC(NC1(C(F)(F)F)C(F)(F)F)(C(F)(F)F)C(F)(F)F,pomona (1987) ,3.35,7,3,3,0,0,0,12,0,0,0,,22,
methyl 6-methoxypyrazine-2-carboxylate,C7H8N2O3,023813-24-3,COC(=O)c1cncc(OC)n1,"yamagami,c et al. (1991) ",0.69,7,8,2,3,0,0,0,0,0,0,,12,
"benzenesulfonamide, 3,4-dichloro-",C6H5Cl2N1O2S1,023815-28-3,N[S](=O)(=O)c1ccc(Cl)c(Cl)c1,sangster (1993) ,1.44,6,5,1,2,1,0,0,2,0,0,,12,
"2-(2,6-dimethylpyrimidin-4-yl)-1,5-dimethylpyrazol-3-one",C11H14N4O1,023898-86-4,CN1N(C(=O)C=C1C)c2cc(C)nc(C)n2,"hansch,c & leo,aj (1985) ",0.24,11,14,4,1,0,0,0,0,0,0,,16,
"2-(6-methoxy-2-methylpyrimidin-4-yl)-1,5-dimethylpyrazol-3-one",C11H14N4O2,023898-89-7,COc1cc(nc(C)n1)N2N(C)C(=CC2=O)C,"hansch,c & leo,aj (1985) ",0.7,11,14,4,2,0,0,0,0,0,0,,17,
"1-(4,6-dimethylpyrimidin-2-yl)-2,5-dimethylpyrazol-3-one",C11H14N4O1,023898-92-2,CN1N(C(=CC1=O)C)c2nc(C)cc(C)n2,"hansch,c & leo,aj (1985) ",0.51,11,14,4,1,0,0,0,0,0,0,,16,
"1-(6-methoxy-2-methylpyrimidin-4-yl)-2,5-dimethylpyrazol-3-one",C11H14N4O2,023898-95-5,COc1cc(nc(C)n1)N2N(C)C(=O)C=C2C,"hansch,c & leo,aj (1985) ",0.38,11,14,4,2,0,0,0,0,0,0,,17,
4-(3-methoxy-5-methylpyrazol-1-yl)pyrimidine,C9H10N4O1,023903-40-4,COc1cc(C)n(n1)c2ccncn2,"hansch,c & leo,aj (1985) ",2.21,9,10,4,1,0,0,0,0,0,0,,14,
"4-(3-methoxy-5-methylpyrazol-1-yl)-2,6-dimethylpyrimidine",C11H14N4O1,023903-41-5,COc1cc(C)n(n1)c2cc(C)nc(C)n2,"hansch,c & leo,aj (1985) ",2.6,11,14,4,1,0,0,0,0,0,0,,16,
4-methoxy-6-(5-methoxy-3-methyl-pyrazol-1-yl)-2-methyl-pyrimidine,C11H14N4O2,023903-42-6,COc1cc(nc(C)n1)n2nc(C)cc2OC,"hansch,c & leo,aj (1985) ",1.54,11,14,4,2,0,0,0,0,0,0,,17,
"2-(3-methoxy-5-methylpyrazol-1-yl)-4,6-dimethylpyrimidine",C11H14N4O1,023905-77-3,COc1cc(C)n(n1)c2nc(C)cc(C)n2,"hansch,c & leo,aj (1985) ",1.82,11,14,4,1,0,0,0,0,0,0,,16,
"2,4-dimethoxy-6-(5-methoxy-3-methylpyrazol-1-yl)pyrimidine",C11H14N4O3,023905-98-8,COc1cc(nc(OC)n1)n2nc(C)cc2OC,"hansch,c & leo,aj (1985) ",1.86,11,14,4,3,0,0,0,0,0,0,,18,
"2-(6-methoxypyrimidin-4-yl)-1,5-dimethylpyrazol-3-one",C10H12N4O2,023906-03-8,COc1cc(ncn1)N2N(C)C(=CC2=O)C,"hansch,c & leo,aj (1985) ",0.3,10,12,4,2,0,0,0,0,0,0,,16,
4-methoxy-2-(5-methoxy-3-methylpyrazol-1-yl)pyrimidine,C10H12N4O2,023917-24-0,COc1ccnc(n1)n2nc(C)cc2OC,"hansch,c & leo,aj (1985) ",1.01,10,12,4,2,0,0,0,0,0,0,,16,
ethyrimol,C11H19N3O1,023947-60-6,CCCCC1=C(C)NC(=NC1=O)NCC,"chamberlain,k et al. (1996) ",2.22,11,19,3,1,0,0,0,0,0,0,,15,
pronamide,C12H11Cl2N1O1,023950-58-5,CC(C)(NC(=O)c1cc(Cl)cc(Cl)c1)C#C,"ellington,jt & stancil,fe (1988) ",3.43,12,11,1,1,0,0,0,2,0,0,,16,
methyl 4-methyl-3-(2-propylaminopropanoylamino)thiophene-2-carboxylate,C13H20N2O3S1,023964-58-1,CCCNC(C)C(=O)Nc1c(C)csc1C(=O)OC,biobyte starlist (2009) ,1.89,13,20,2,3,1,0,0,0,0,0,,19,
2-phenylmorpholine,C10H13N1O1,023972-41-0,C1COC(CN1)c2ccccc2,"hansch,c et al. (1995) ",1.11,10,13,1,1,0,0,0,0,0,0,,12,
"2-(2,4,6-tribromophenoxy)ethanol",C8H7Br3O2,023976-66-1,OCCOc1c(Br)cc(Br)cc1Br,"hansch,c et al. (1995) ",3.42,8,7,0,2,0,0,0,0,3,0,,13,
"diethoxy-[(1-phenyl-1,2,4-triazol-3-yl)oxy]-sulfanylidenephosphorane",C12H16N3O3P1S1,024017-47-8,CCO[P](=S)(OCC)Oc1ncn(n1)c2ccccc2,"tomlin,c (1997) ",3.34,12,16,3,3,1,1,0,0,0,0,,20,
ohric,C10H7Cl2N1O2,024096-53-5,Clc1cc(Cl)cc(c1)N2C(=O)CCC2=O,"yang,d et al. (1985) ",1.4,10,7,1,2,0,0,0,2,0,0,,15,
n-(4-bromo-2-methylphenyl)acetamide,C9H10Br1N1O1,024106-05-6,CC(=O)Nc1ccc(Br)cc1C,"nakagawa,y et al. (1992) ",2.03,9,10,1,1,0,0,0,0,1,0,,12,
"3-methyl-1,2,4-triazine",C4H5N3,024108-33-6,Cc1nccnn1,pomona (1987) ,-1.31,4,5,3,0,0,0,0,0,0,0,,7,
"methyl 2,2-dimethyl-3-(2-methylprop-1-enyl)cyclopropane-1-carboxylate",C11H18O2,024141-52-4,COC(=O)C1C(C=C(C)C)C1(C)C,"hansch,c & leo,aj (1985) ",3.76,11,18,0,2,0,0,0,0,0,0,,13,
2-dipropoxyphosphinothioylsulfanyl-1-(2-methylpiperidin-1-yl)ethanone,C14H28N1O3P1S2,024151-93-7,CCCO[P](=S)(OCCC)SCC(=O)N1CCCCC1C,"saito,h et al. (1993) ",4.04,14,28,1,3,2,1,0,0,0,0,,21,
ncgc00024926-04,C18H20N2,024219-97-4,CN1CCN2C(C1)c3ccccc3Cc4ccccc24,biobyte starlist (2009) ,4.24,18,20,2,0,0,0,0,0,0,0,,20,
"2-[2-[(5-nitro-1,3-thiazol-2-yl)amino]-4,5-dihydroimidazol-1-yl]ethanol",C8H11N5O3S1,024240-70-8,OCCN1CCN=C1Nc2sc(cn2)[N+]([O-])=O,"hansch & leo, 1985",1.96,8,11,5,3,1,0,0,0,0,0,,17,
"[2-[2,5-bis(aziridin-1-yl)-4-methyl-3,6-dioxo-1-cyclohexa-1,4-dienyl]-2-methoxyethyl] carbamate",C15H19N3O5,024279-91-2,COC(COC(N)=O)C1=C(N2CC2)C(=O)C(=C(N3CC3)C1=O)C,"hansch,c et al. (1995) ",-0.15,15,19,3,5,0,0,0,0,0,0,,23,
"5,3',4'-trihydroxyflavanone",C15H12O5,024292-54-4,Oc1ccc(cc1O)C2CC(=O)c3c(O)cccc3O2,"perrissoud,d & testa,b (1986) ",2.81,15,12,0,5,0,0,0,0,0,0,,20,
"l-prolinamide, 5-oxo-l-prolyl-l-histidyl-",C16H22N6O4,024305-27-9,NC(=O)[C@@H]1CCCN1C(=O)[C@H](Cc2c[nH]cn2)NC(=O)[C@@H]3CCC(=O)N3,"hansch,c et al. (1995) ",-2.46,16,22,6,4,0,0,0,0,0,0,,26,
3-methylbutanehydrazide,C5H12N2O1,024310-18-7,CC(C)CC(=O)NN,"hansch,c et al. (1995) ",-0.31,5,12,2,1,0,0,0,0,0,0,,8,
"16-ethyl-17-(2-hydroxyacetyl)-13-methyl-2,6,7,8,9,10,11,12,14,15,16,17-dodecahydro-1h-cyclopenta[a]phenanthren-3-one",C22H32O3,not,CCC1CC2C3CCC4=CC(=O)CCC4C3CCC2(C)C1C(=O)CO,biobyte (1995) ,4.01,22,32,0,3,0,0,0,0,0,0,,25,
9h-fluoren-9-ylmethanol,C14H12O1,024324-17-2,OCC1c2ccccc2c3ccccc13,sangster (1993) ,2.89,14,12,0,1,0,0,0,0,0,0,,15,
"diethylmalonate,2-me benzal",C15H18O4,024331-75-7,O(CC)C(=O)C(C(=O)OCC)=Cc1ccccc1C,"hansch,c et al. (1995) ",3.22,15,18,0,4,0,0,0,0,0,0,,19,
diethyl 2-[(4-hydroxy-3-methoxyphenyl)methylidene]propanedioate,C15H18O6,024331-83-7,CCOC(=O)C(=Cc1ccc(O)c(OC)c1)C(=O)OCC,"hansch,c et al. (1995) ",2.89,15,18,0,6,0,0,0,0,0,0,,21,
propan-2-yl 2-(amino-methoxyphosphinothioyl)oxybenzoate,C11H16N1O4P1S1,024353-61-5,CO[P](N)(=S)Oc1ccccc1C(=O)OC(C)C,"hu,j & leng,xf (1992) ",2.7,11,16,1,4,1,1,0,0,0,0,,18,
4-amino-2-hexoxybenzoic acid,C13H19N1O3,024397-14-6,CCCCCCOc1cc(N)ccc1C(O)=O,"hansch,c et al. (1995) ",3.22,13,19,1,3,0,0,0,0,0,0,,17,
"phenanthrene, 2-chloro-",C14H9Cl1,024423-11-8,Clc1ccc2c(ccc3ccccc23)c1,"veith,gd et al. (1979) ",5.16,14,9,0,0,0,0,0,1,0,0,,15,
"5,5-dimethyl-1,3-diazinane-2,4,6-trione",C6H8N2O3,024448-94-0,CC1(C)C(=O)NC(=O)NC1=O,"prankerd,rj & mckeown,rh (1992) ",-0.44,6,8,2,3,0,0,0,0,0,0,,11,
"benzamide, 4-[(4-aminophenyl)sulfonyl]-",C13H12N2O3S1,024454-46-4,NC(=O)c1ccc(cc1)[S](=O)(=O)c2ccc(N)cc2,"altomare,c et al. (1991) ",0.9,13,12,2,3,1,0,0,0,0,0,,19,
"dibenzofuran, 1,2,3,4-tetrachloro-",C12H4Cl4O1,024478-72-6,Clc1c(Cl)c(Cl)c2c(oc3ccccc23)c1Cl,"sijm,dthm et al. (1989) ",6.17,12,4,0,1,0,0,0,4,0,0,,17,
3-prop-2-enoyloxypropyl prop-2-enoate,C9H12O4,024493-53-6,C=CC(=O)OCCCOC(=O)C=C,biobyte starlist (2009) ,0.87,9,12,0,4,0,0,0,0,0,0,,13,
oo-diet-o(2-cl-4-mesph)phosphate,C11H16Cl1O4P1S1,024493-78-5,CCOP(=O)(Oc1c(Cl)cc(SC)cc1)OCC,"hansch,c et al. (1995) ",3.05,11,16,0,4,1,1,0,1,0,0,,18,
propanehydrazide,C3H8N2O1,024535-11-3,CCC(=O)NN,"hansch,c et al. (1995) ",-1,3,8,2,1,0,0,0,0,0,0,,6,
"2,6-di(propan-2-yl)aniline",C12H19N1,024544-04-5,CC(C)c1cccc(C(C)C)c1N,biobyte (1995) ,3.18,12,19,1,0,0,0,0,0,0,0,,13,
"n-(4-bromophenyl)-2,2,2-trifluoroacetamide",C8H5Br1F3N1O1,024568-11-4,FC(F)(F)C(=O)Nc1ccc(Br)cc1,"hansch,c et al. (1995) ",3.34,8,5,1,1,0,0,3,0,1,0,,14,
"ethyl 4-[(2,2,2-trifluoroacetyl)amino]benzoate",C11H10F3N1O3,024568-14-7,CCOC(=O)c1ccc(NC(=O)C(F)(F)F)cc1,pomona (1987) ,2.25,11,10,1,3,0,0,3,0,0,0,,18,
propyl n-(3-dimethylaminopropyl)carbamate,C9H20N2O2,024579-73-5,CCCOC(=O)NCCCN(C)C,"chamberlain,k et al. (1996) ",1.12,9,20,2,2,0,0,0,0,0,0,,13,
dexamethasone-21-t-butylacetate,C28H39F1O6,024668-75-5,CC1CC2C3CCC4=CC(=O)C=CC4(C3(C(CC2(C1(C(=O)COC(=O)CC(C)(C)C)O)C)O)F)C,biobyte starlist (2009) ,4.3,28,39,0,6,0,0,1,0,0,0,,35,
"24imidazolidinedione,1[(4clph)so2]55diph",C21H15Cl1N2O4S1,024759-38-4,Clc1ccc(S(=O)(=O)N3C(=O)NC(=O)C3(c4ccccc4)c2ccccc2)cc1,daylight (1999) ,4.48,21,15,2,4,1,0,0,1,0,0,,29,
"furazan, chlorophenyl-",C8H5Cl1N2O1,024786-13-8,Clc1nonc1c2ccccc2,"calvino,r et al. (1992) ",3.2,8,5,2,1,0,0,0,1,0,0,,12,
"2-benzylamino-4,6-bis(trichloromethyl)-s-triazin",C12H8Cl6N4,024803-16-5,ClC(Cl)(Cl)c1nc(NCc2ccccc2)nc(n1)C(Cl)(Cl)Cl,"sato,y et al. (1993) ",4.93,12,8,4,0,0,0,0,6,0,0,,22,
2-acetamido-n-(1-amino-1-oxo-3-phenylpropan-2-yl)-3-phenylpropanamide,C20H23N3O3,024809-26-5,CC(=O)NC(Cc1ccccc1)C(=O)NC(Cc2ccccc2)C(N)=O,sangster (1994) ,1.19,20,23,3,3,0,0,0,0,0,0,,26,
1-acetyl-n-methylpyrrolidine-2-carboxamide,C8H14N2O2,024847-46-9,CNC(=O)C1CCCN1C(C)=O,"hansch,c & leo,aj (1985) ",-1.19,8,14,2,2,0,0,0,0,0,0,,12,
"3,5-dichlorodiphenyl ether",C12H8Cl2O1,024910-68-7,Clc1cc(Cl)cc(Oc2ccccc2)c1,"kurz,j & ballschmiter,k (1999) ",5.21,12,8,0,1,0,0,0,2,0,0,,15,
"2,5-dichlorodiphenyl ether",C12H8Cl2O1,024910-69-8,Clc2ccc(Cl)cc2Oc1ccccc1,"kurz,j & ballschmiter,k (1999) ",5.13,12,8,0,1,0,0,0,2,0,0,,15,
"3,4',5-trichlorodiphenyl ether",C12H7Cl3O1,024910-73-4,Clc1cc(Cl)cc(Oc2ccc(Cl)cc2)c1,"kurz,j & ballschmiter,k (1999) ",5.77,12,7,0,1,0,0,0,3,0,0,,16,
3-formylbenzonitrile,C8H5N1O1,024964-64-5,O=Cc1cccc(c1)C#N,"hansch,c et al. (1995) ",1.18,8,5,1,1,0,0,0,0,0,0,,10,
leptophos-o-analog,C13H10Br1Cl2O3P1,025006-32-0,COP(=O)(c2ccccc2)Oc1c(Cl)cc(Br)c(Cl)c1,"hansch,c & leo,aj (1985) ",4.58,13,10,0,3,0,1,0,2,1,0,,20,
"(2-propan-2-ylphenyl) n,n-dimethylcarbamate",C12H17N1O2,025007-30-1,CC(C)c1ccccc1OC(=O)N(C)C,"hansch,c et al. (1995) ",2.65,12,17,1,2,0,0,0,0,0,0,,15,
"2-(2,5-dioxopyrrol-1-yl)acetic acid",C6H5N1O4,025021-08-3,OC(=O)CN1C(=O)C=CC1=O,sangster (1993) ,-0.14,6,5,1,4,0,0,0,0,0,0,,11,
"2,2-dioxo-3-propan-2-yl-1h-benzo[d][1,2,6]thiadiazin-4-one",C10H12N2O3S1,025057-89-0,CC(C)N1C(=O)c2ccccc2N[S]1(=O)=O,"saito,h et al. (1993) ",2.34,10,12,2,3,1,0,0,0,0,0,,16,
benazolin-ethyl,C11H10Cl1N1O3S1,025059-80-7,CCOC(=O)CN1C(=O)Sc2cccc(Cl)c12,"tomlin,c (1994) ",2.5,11,10,1,3,1,0,0,1,0,0,,17,
n-(2-cyanophenyl)acetamide,C9H8N2O1,025116-00-1,CC(=O)Nc1ccccc1C#N,pomona (1987) ,0.57,9,8,2,1,0,0,0,0,0,0,,12,
clobetasol,C22H28Cl1F1O4,025122-41-2,CC1CC2C3CCC4=CC(=O)C=CC4(C)[C@@]3(F)C(O)CC2(C)[C@@]1(O)C(=O)CCl,"hansch,c et al. (1995) ",2.48,22,28,0,4,0,0,1,1,0,0,,28,
"[17-(2-bromoacetyl)-9-fluoro-10,13,16-trimethyl-3,11-dioxo-7,8,12,14,15,16-hexahydro-6h-cyclopenta[a]phenanthren-17-yl] propanoate",C25H30Br1F1O5,025122-43-4,CCC(=O)OC1(C(C)CC2C3CCC4=CC(=O)C=CC4(C)C3(F)C(=O)CC12C)C(=O)CBr,"hansch,c et al. (1995) ",3.55,25,30,0,5,0,0,1,0,1,0,,32,
clobetasol-17-propionate,C25H32Cl1F1O5,025122-46-7,CCC(=O)O[C@@]1([C@@H](C)CC2C3CCC4=CC(=O)C=C[C@]4(C)[C@@]3(F)[C@@H](O)C[C@]12C)C(=O)CCl,sangster (1994) ,3.5,25,32,0,5,0,0,1,1,0,0,,32,
clobetasol-17-butyrate,C26H34Cl1F1O5,025122-47-8,C12(C)CC(O)C3(F)C(CCC4=CC(=O)C=CC34C)C1CC(C)C2(OC(=O)CCC)C(=O)CCl,"hansch,c et al. (1995) ",3.63,26,34,0,5,0,0,1,1,0,0,,33,
clobetasol-17-propionate-9-cl,C25H32Cl2O5,025122-49-0,C12(C)CC(O)C3(Cl)C(CCC4=CC(=O)C=CC34C)C1CC(C)C2(OC(=O)CC)C(=O)CCl,"hansch,c et al. (1995) ",3.28,25,32,0,5,0,0,0,2,0,0,,32,
clobetasone-17-propionate,C25H30Cl1F1O5,025122-56-9,C12(C)CC(=O)C3(F)C(CCC4=CC(=O)C=CC34C)C1CC(C)C2(OC(=O)CC)C(=O)CCl,"hansch,c et al. (1995) ",3.46,25,30,0,5,0,0,1,1,0,0,,32,
clobetasone-17-butyrate,C26H32Cl1F1O5,025122-57-0,C12(C)CC(=O)C3(F)C(CCC4=CC(=O)C=CC34C)C1CC(C)C2(OC(=O)CCC)C(=O)CCl,"hansch,c et al. (1995) ",3.76,26,32,0,5,0,0,1,1,0,0,,33,
2-(2-propan-2-ylphenoxy)acetic acid,C11H14O3,025141-58-6,CC(C)c1ccccc1OCC(O)=O,"hansch,c et al. (1995) ",2.84,11,14,0,3,0,0,0,0,0,0,,14,
3-phenylpropylbenzene,C15H16,025167-94-6,C(Cc1ccccc1)Cc2ccccc2,biobyte starlist (2009) ,3.43,15,16,0,0,0,0,0,0,0,0,,15,
"3,5-dichlorotoluene",C7H6Cl2,025186-47-4,Cc1cc(Cl)cc(Cl)c1,biobyte (1995) ,3.99,7,6,0,0,0,0,0,2,0,0,,9,
"butanoic acid, 2-(4-chloro-2-methylphenoxy)-",C11H13Cl1O3,025204-89-1,CCC(Oc1ccc(Cl)cc1C)C(O)=O,"ilchmann,a et al. (1993) ",3.47,11,13,0,3,0,0,0,1,0,0,,15,
2-(4-cyclopentylphenyl)acetic acid,C13H16O2,025209-50-1,OC(=O)Cc1ccc(cc1)C2CCCC2,sangster (1993) ,3.44,13,16,0,2,0,0,0,0,0,0,,15,
(3-chloro-4-methoxyphenyl)urea,C8H9Cl1N2O2,025277-05-8,COc1ccc(NC(N)=O)cc1Cl,"briggs,gg (1981) ",1.37,8,9,2,2,0,0,0,1,0,0,,13,
"n,n-dimethylquinoline-3-carboxamide",C12H12N2O1,025283-63-0,CN(C)C(=O)c1cnc2ccccc2c1,"hansch,c & leo,aj (1985) ",0.99,12,12,2,1,0,0,0,0,0,0,,15,
2-[(3-aminophenyl)amino]benzoic acid,C13H12N2O2,025293-29-2,Nc1cccc(Nc2ccccc2C(O)=O)c1,biobyte starlist (2009) ,2.99,13,12,2,2,0,0,0,0,0,0,,17,
propan-2-yl 2-[ethoxy-(propan-2-ylamino)phosphinothioyl]oxybenzoate,C15H24N1O4P1S1,025311-71-1,CCO[P](=S)(NC(C)C)Oc1ccccc1C(=O)OC(C)C,"hansch,c et al. (1995) ",4.12,15,24,1,4,1,1,0,0,0,0,,22,
1-(1h-indol-3-yl)ethanone,C10H9N1O1,025314-91-4,CC(=O)c1c[nH]c2ccccc12,"hansch,c et al. (1995) ",2.06,10,9,1,1,0,0,0,0,0,0,,12,
mcpa-thioethyl,C11H13Cl1O2S1,025319-90-8,CCSC(=O)COc1ccc(Cl)cc1C,"tomlin,c (1997) ",4.05,11,13,0,2,1,0,0,1,0,0,,15,
"2,2',5-trichlorobiphenyl",C12H7Cl3,037680-65-2,Clc1ccc(Cl)c(c1)c2ccccc2Cl,"hansch,c et al. (1995) ",5.55,12,7,0,0,0,0,0,3,0,0,,15,
"1,3-dimethyl-1-[5-(trifluoromethyl)-1,3,4-thiadiazol-2-yl]urea",C6H7F3N4O1S1,025366-23-8,CNC(=O)N(C)c1sc(nn1)C(F)(F)F,sangster (1994) ,1.85,6,7,4,1,1,0,3,0,0,0,,15,
methyl-dipropoxy-sulfanylidenephosphorane,C7H17O2P1S1,025371-75-9,CCCO[P](C)(=S)OCCC,"krikorian,se et al. (1987) ",3.26,7,17,0,2,1,1,0,0,0,0,,11,
2-phenylindolizine,C14H11N1,025379-20-8,c1ccc(cc1)c2cn3ccccc3c2,"hansch,c et al. (1995) ",4.29,14,11,1,0,0,0,0,0,0,0,,15,
(1-methyl-4-phenyl-3-prop-2-enylpiperidin-4-yl) propanoate,C18H25N1O2,025384-17-2,CCC(=O)OC1(CCN(C)CC1CC=C)c2ccccc2,biobyte (1995) ,2.97,18,25,1,2,0,0,0,0,0,0,,21,
"erythromycin, 4'-hydroxy-",C37H67N1O14,025405-65-6,CCC1C(C(C(C(=O)C(CC(C(C(C(C(C(=O)O1)CO)OC2CC(C(C(O2)C)O)(C)OC)C)OC3C(C(CC(O3)C)N(C)C)O)(C)O)C)C)O)(C)O,pomona (1987) ,1.44,37,67,1,14,0,0,0,0,0,0,,52,
n-butyl-n-propylnitrous amide,C7H16N2O1,025413-64-3,CCCCN(CCC)N=O,"vera,a et al. (1992) ",2.09,7,16,2,1,0,0,0,0,0,0,,10,
2-methoxyfuran,C5H6O2,025414-22-6,COc1occc1,"hansch,c et al. (1995) ",1.44,5,6,0,2,0,0,0,0,0,0,,7,
"1,2-dibromoethene",C2H2Br2,025429-23-6,BrC=CBr,"hansch,c et al. (1995) ",1.76,2,2,0,0,0,0,0,0,2,0,,4,
"2,4,5,2',5'-pentachlorobiphenyl",C12H5Cl5,037680-73-2,Clc1ccc(Cl)c(c1)c2cc(Cl)c(Cl)cc2Cl,"hansch,c et al. (1995) ",6.8,12,5,0,0,0,0,0,5,0,0,,17,
4-phenylthiadiazole,C8H6N2S1,025445-77-6,s1cc(nn1)c2ccccc2,"hansch,c et al. (1995) ",2.42,8,6,2,0,1,0,0,0,0,0,,11,
4-acetamido-5-amino-5-oxopentanoic acid,C7H12N2O4,025460-87-1,CC(=O)NC(CCC(O)=O)C(N)=O,biobyte (1995) ,-2.47,7,12,2,4,0,0,0,0,0,0,,13,
"1-[4-fluoro-5-(hydroxymethyl)oxolan-2-yl]-5-methylpyrimidine-2,4-dione",C10H13F1N2O4,025526-93-6,CC1=CN(C2CC(F)C(CO)O2)C(=O)NC1=O,"balzarini,jm et al. (1989) ",-0.28,10,13,2,4,0,0,1,0,0,0,,17,