Names,Formula,CAS No,SMILES,Reference,Exp logp,C,H,N,O,S,P,F,Cl,Br,I,,,
"2,5-cyclohexadiene-1,4-dione, 2-chloro-",C6H3Cl1O2,000695-99-8,ClC1=CC(=O)C=CC1=O,"hansch,c et al. (1995) ",0.84,6,3,0,2,0,0,0,1,0,0,,9,
"n,3-dimethylaniline",C8H11N1,000696-44-6,CNc1cccc(C)c1,chemicals inspection and testing institu (1992) ,2.19,8,11,1,0,0,0,0,0,0,0,,9,
4-pyridinealdoxime,C6H6N2O1,000696-54-8,ON=Cc1ccncc1,"hansch,c et al. (1995) ",0.77,6,6,2,1,0,0,0,0,0,0,,9,
4-bromobenzamide,C7H6Br1N1O1,000698-67-9,NC(=O)c1ccc(Br)cc1,"hansch,c et al. (1995) ",1.76,7,6,1,1,0,0,0,0,1,0,,10,
1-phenylpropan-2-ol,C9H12O1,014898-87-4,CC(O)Cc1ccccc1,biobyte starlist (2009) ,1.97,9,12,0,1,0,0,0,0,0,0,,10,
9-methylpurin-6-amine,C6H7N5,000700-00-5,Cn1cnc2c(N)ncnc12,"lam,sp et al. (1989) ",-0.03,6,7,5,0,0,0,0,0,0,0,,11,
"1,2,3,4,5-pentamethylbenzene",C11H16,000700-12-9,Cc1cc(C)c(C)c(C)c1C,"hansch,c et al. (1995) ",4.56,11,16,0,0,0,0,0,0,0,0,,11,
"2,3,5-trimethylhydroquinone",C9H12O2,000700-13-0,Cc1cc(O)c(C)c(C)c1O,biobyte (1995) ,1.69,9,12,0,2,0,0,0,0,0,0,,11,
"2-methoxy-n,n-dimethylaniline",C9H13N1O1,000700-75-4,COc1ccccc1N(C)C,"hansch,c et al. (1995) ",1.63,9,13,1,1,0,0,0,0,0,0,,11,
4-bromobenzenesulfonamide,C6H6Br1N1O2S1,000701-34-8,N[S](=O)(=O)c1ccc(Br)cc1,"hansch,c et al. (1995) ",1.36,6,6,1,2,1,0,0,0,1,0,,11,
"4-methoxy-n,n-dimethylaniline",C9H13N1O1,000701-56-4,COc1ccc(cc1)N(C)C,"hansch,c et al. (1995) ",1.42,9,13,1,1,0,0,0,0,0,0,,11,
trichloromethylthiobenzene,C7H5Cl3S1,000701-65-5,ClC(Cl)(Cl)Sc1ccccc1,"hansch,c et al. (1995) ",3.78,7,5,0,0,1,0,0,3,0,0,,11,
(3-hydroxyphenyl)urea,C7H8N2O2,000701-82-6,NC(=O)Nc1cccc(O)c1,biobyte starlist (2009) ,0.36,7,8,2,2,0,0,0,0,0,0,,11,
(3-fluorophenyl) acetate,C8H7F1O2,000701-83-7,CC(=O)Oc1cccc(F)c1,"hansch,c et al. (1995) ",1.74,8,7,0,2,0,0,1,0,0,0,,11,
2-(2-methyl-4-nitroimidazol-1-yl)ethanol,C6H9N3O3,000705-19-1,Cc1nc(cn1CCO)[N+]([O-])=O,"hansch,c et al. (1995) ",-0.59,6,9,3,3,0,0,0,0,0,0,,12,
b-methyl b-nitrostyrene,C9H9N1O2,000705-60-2,CC(=Cc1ccccc1)N(=O)(=O),"hansch,c et al. (1995) ",2.52,9,9,1,2,0,0,0,0,0,0,,12,
"1,1-dimethyl-3-phenylthiourea",C9H12N2S1,000705-62-4,CN(C)C(=S)Nc1ccccc1,pomona (1987) ,1.04,9,12,2,0,1,0,0,0,0,0,,12,
5-hexyloxolan-2-one,C10H18O2,000706-14-9,CCCCCCC1CCC(=O)O1,"hansch,c et al. (1995) ",2.72,10,18,0,2,0,0,0,0,0,0,,12,
trimethoxymethylbenzene,C10H14O3,000707-07-3,COC(OC)(OC)c1ccccc1,"hansch,c et al. (1995) ",2.27,10,14,0,3,0,0,0,0,0,0,,13,
9-propylpurin-6-amine,C8H11N5,000707-98-2,CCCn1cnc2c(N)ncnc12,"hansch,c et al. (1995) ",0.74,8,11,5,0,0,0,0,0,0,0,,13,
1-butylbenzotriazole,C10H13N3,000708-43-0,CCCCn1nnc2ccccc12,"hansch,c et al. (1995) ",2.57,10,13,3,0,0,0,0,0,0,0,,13,
propanil,C9H9Cl2N1O1,000709-98-8,CCC(=O)Nc1ccc(Cl)c(Cl)c1,"hansch,c et al. (1995) ",3.07,9,9,1,1,0,0,0,2,0,0,,13,
2-(sulfamoylamino)ethylbenzene,C8H12N2O2S1,000710-15-6,N[S](=O)(=O)NCCc1ccccc1,"hansch,c et al. (1995) ",0.81,8,12,2,2,1,0,0,0,0,0,,13,
2-naphthalen-1-yloxyethanol,C12H12O2,000711-82-0,OCCOc1cccc2ccccc12,"chamberlain,k et al. (1986) ",2.5,12,12,0,2,0,0,0,0,0,0,,14,
n-methyl-4-oxo-4-pyridin-3-ylbutanamide,C10H12N2O2,000713-05-3,CNC(=O)CCC(=O)c1cccnc1,"li,ny & gorrod,jw (1992) ",-0.69,10,12,2,2,0,0,0,0,0,0,,14,
"3,5-dimethyl-4-nitroso-1-phenylpyrazole",C11H11N3O1,000715-99-1,Cc1nn(c2ccccc2)c(C)c1N=O,"hansch,c et al. (1995) ",2.28,11,11,3,1,0,0,0,0,0,0,,15,
2-phenyl-1h-benzimidazole,C13H10N2,000716-79-0,[nH]1c2ccccc2nc1c3ccccc3,"hansch,c et al. (1995) ",3.24,13,10,2,0,0,0,0,0,0,0,,15,
"1,1,1,3,3,3-hexafluoro-2-phenylpropan-2-ol",C9H6F6O1,000718-64-9,OC(c1ccccc1)(C(F)(F)F)C(F)(F)F,"hansch,c et al. (1995) ",3.41,9,6,0,1,0,0,6,0,0,0,,16,
"2,6-ditert-butylcyclohexa-2,5-diene-1,4-dione",C14H20O2,000719-22-2,CC(C)(C)C1=CC(=O)C=C(C1=O)C(C)(C)C,"barber,lb et al. (1988) ",4.42,14,20,0,2,0,0,0,0,0,0,,16,
n-(2-methylphenyl)-2-propylaminopropanamide,C13H20N2O1,000721-50-6,CCCNC(C)C(=O)Nc1ccccc1C,"hansch,c et al. (1995) ",2.11,13,20,2,1,0,0,0,0,0,0,,16,
"4-amino-n-(5-methyl-1,2-oxazol-3-yl)benzenesulfonamide",C10H11N3O3S1,000723-46-6,Cc1onc(N[S](=O)(=O)c2ccc(N)cc2)c1,"hansch,c et al. (1995) ",0.89,10,11,3,3,1,0,0,0,0,0,,17,
"3-methyl-6-(trifluoromethyl)-4h-benzo[e][1,2,4]thiadiazine 1,1-dioxide",C9H7F3N2O2S1,000723-57-9,CC1=N[S](=O)(=O)c2ccc(cc2N1)C(F)(F)F,"hansch & leo, 1985",0.53,9,7,2,2,1,0,3,0,0,0,,17,
anthracene-9-carboxylic acid,C15H10O2,000723-62-6,OC(=O)c1c2ccccc2cc3ccccc13,"hansch,c et al. (1995) ",3.85,15,10,0,2,0,0,0,0,0,0,,17,
n-[bis(aziridin-1-yl)phosphoryl]-4-fluorobenzamide,C11H13F1N3O2P1,not,Fc1ccc(cc1)C(=O)N[P](=O)(N2CC2)N3CC3,"hansch,c et al. (1995) ",0.86,11,13,3,2,0,1,1,0,0,0,,18,
2-methyl-1-(4-methylphenyl)-3-piperidin-1-ylpropan-1-one,C16H23N1O1,000728-88-1,CC(CN1CCCCC1)C(=O)c2ccc(C)cc2,sangster (1994) ,3.65,16,23,1,1,0,0,0,0,0,0,,18,
tolyfluanide,C10H13Cl2F1N2O2S2,000731-27-1,CN(C)[S](=O)(=O)N(SC(F)(Cl)Cl)c1ccc(C)cc1,"tomlin,c (1997) ",3.9,10,13,2,2,2,0,1,2,0,0,,19,
"2-(dimethoxyphosphinothioylsulfanylmethyl)isoindole-1,3-dione",C11H12N1O4P1S2,000732-11-6,CO[P](=S)(OC)SCN1C(=O)c2ccccc2C1=O,"hansch,c et al. (1995) ",2.78,11,12,1,4,2,1,0,0,0,0,,19,
"2,4,6-tritert-butylphenol",C18H30O1,000732-26-3,CC(C)(C)c1cc(c(O)c(c1)C(C)(C)C)C(C)(C)C,chemicals inspection and testing institu (1992) ,6.06,18,30,0,1,0,0,0,0,0,0,,19,
"5-[(3,4,5-trimethoxyphenyl)methyl]pyrimidine-2,4-diamine",C14H18N4O3,000738-70-5,COc1cc(Cc2cnc(N)nc2N)cc(OC)c1OC,"hansch,c et al. (1995) ",0.91,14,18,4,3,0,0,0,0,0,0,,21,
n-[2-di(propan-2-yloxy)phosphinothioylsulfanylethyl]benzenesulfonamide,C14H24N1O4P1S3,000741-58-2,CC(C)O[P](=S)(OC(C)C)SCCN[S](=O)(=O)c1ccccc1,"tomlin,c (1994) ",4.2,14,24,1,4,3,1,0,0,0,0,,23,
3-cyclopentylmethylhydrochlorothiazide,C13H18Cl1N3O4S2,000742-20-1,c1(S(=O)(=O)N)cc2S(=O)(=O)NC(CC3CCCC3)Nc2cc1Cl,"hansch,c et al. (1995) ",1.27,13,18,3,4,2,0,0,1,0,0,,23,
prostaglandin e1,C20H34O5,000745-65-3,CCCCC[C@H](O)/C=C/[C@H]1[C@H](O)CC(=O)[C@@H]1CCCCCCC(O)=O,"avdeef,a et al. (1995) ",3.2,20,34,0,5,0,0,0,0,0,0,,25,
"2,4,5,7-tetranitrofluoren-9-one",C13H4N4O9,000746-53-2,[O-][N+](=O)c1cc2C(=O)c3cc(cc(c3c2c(c1)[N+]([O-])=O)[N+]([O-])=O)[N+]([O-])=O,"debnath,ak & hansch,c (1992) ",2.4,13,4,4,9,0,0,0,0,0,0,,26,
"8-[4-(4-fluorophenyl)-4-oxobutyl]-1-phenyl-1,3,8-triazaspiro[4.5]decan-4-one",C23H26F1N3O2,000749-02-0,Fc1ccc(cc1)C(=O)CCCN2CCC3(CC2)N(CNC3=O)c4ccccc4,"hansch,c et al. (1995) ",3.03,23,26,3,2,0,0,1,0,0,0,,29,
"2,2,2-trifluoroacetonitrile",C2H4F3N1,000753-90-2,FC(F)(F)C#N,"hansch,c et al. (1995) ",0.24,2,4,1,0,0,0,3,0,0,0,,6,
hydroxy-dimethoxy-methylphosphanium,C3H9O3P1,000756-79-6,CO[P+](C)(O)OC,"krikorian,se et al. (1987) ",-0.61,3,9,0,3,0,1,0,0,0,0,,7,
"n,n-dimethylpropanamide",C5H11N1O1,000758-96-3,CCC(=O)N(C)C,"hansch,c et al. (1995) ",-0.11,5,11,1,1,0,0,0,0,0,0,,7,
1-ethyl-1-nitrosourea,C3H7N3O2,000759-73-9,CCN(N=O)C(N)=O,"hansch,c et al. (1995) ",0.23,3,7,3,2,0,0,0,0,0,0,,8,
s-ethyl (dipropylamino)methanethioate,C9H19N1O1S1,000759-94-4,CCCN(CCC)C(=O)SCC,"hansch,c et al. (1995) ",3.21,9,19,1,1,1,0,0,0,0,0,,12,
1-(2-methylpropyl)-1-nitrosourea,C5H11N3O2,000760-60-1,CC(C)CN(N=O)C(N)=O,"hansch,c et al. (1995) ",1.04,5,11,3,2,0,0,0,0,0,0,,10,
"2,5-dimethylhexa-2,4-diene",C8H14,000764-13-6,CC(C)=CC=C(C)C,chemicals inspection and testing institu (1992) ,3.5,8,14,0,0,0,0,0,0,0,0,,8,
"2-butenedinitrile, (e)-",C4H2N2,000764-42-1,N#C/C=C/C#N,"hansch,c et al. (1995) ",-0.25,4,2,2,0,0,0,0,0,0,0,,6,
cyclopropanamine,C3H7N1,000765-30-0,NC1CC1,"hansch,c et al. (1995) ",0.07,3,7,1,0,0,0,0,0,0,0,,4,
1-cyclopropylethanone,C5H8O1,000765-43-5,CC(=O)C1CC1,"hansch,c et al. (1995) ",0.49,5,8,0,1,0,0,0,0,0,0,,6,
1-ethylpiperidine,C7H15N1,000766-09-6,CCN1CCCCC1,sangster (1993) ,1.75,7,15,1,0,0,0,0,0,0,0,,8,
"2,6-dimethylpiperidine",C7H15N1,000766-17-6,CC1CCCC(C)N1,"hansch,c et al. (1995) ",1.53,7,15,1,0,0,0,0,0,0,0,,8,
o-chloroanisole,C7H7Cl1O1,000766-51-8,COc1ccccc1Cl,"nakagawa,y et al. (1992) ",2.68,7,7,0,1,0,0,0,1,0,0,,9,
4-hydroxybenzonitrile,C7H5N1O1,000767-00-0,Oc1ccc(cc1)C#N,"hansch,c et al. (1995) ",1.6,7,5,1,1,0,0,0,0,0,0,,9,
1-phenylprop-2-en-1-one,C9H8O1,000768-03-6,C=CC(=O)c1ccccc1,"hansch,c et al. (1995) ",1.88,9,8,0,1,0,0,0,0,0,0,,10,
(4-ethylphenyl)methanol,C9H12O1,000768-59-2,CCc1ccc(CO)cc1,daylight (1999) ,2.27,9,12,0,1,0,0,0,0,0,0,,10,
"2,2,6,6-tetramethylpiperidine",C9H19N1,000768-66-1,CC1(C)CCCC(C)(C)N1,"hansch,c et al. (1995) ",2.15,9,19,1,0,0,0,0,0,0,0,,10,
adamantan-1-amine,C10H17N1,000768-94-5,NC12CC3CC(CC(C3)C1)C2,"hansch,c et al. (1995) ",2.44,10,17,1,0,0,0,0,0,0,0,,11,
adamantan-1-ol,C10H16O1,000768-95-6,OC12CC3CC(CC(C3)C1)C2,"hansch,c et al. (1995) ",2.14,10,16,0,1,0,0,0,0,0,0,,11,
4-tert-butylaniline,C10H15N1,000769-92-6,CC(C)(C)c1ccc(N)cc1,"hansch,c et al. (1995) ",2.7,10,15,1,0,0,0,0,0,0,0,,11,
(3-fluorophenyl)urea,C7H7F1N2O1,000770-19-4,NC(=O)Nc1cccc(F)c1,"hansch,c et al. (1995) ",1.29,7,7,2,1,0,0,1,0,0,0,,11,
1h-indole-3-carboxylic acid,C9H7N1O2,000771-50-6,OC(=O)c1c[nH]c2ccccc12,"hansch,c et al. (1995) ",1.99,9,7,1,2,0,0,0,0,0,0,,12,
"2,3,4,5,6-pentafluorophenol",C6H1F5O1,000771-61-9,Oc1c(F)c(F)c(F)c(F)c1F,"hansch,c et al. (1995) ",3.23,6,1,0,1,0,0,5,0,0,0,,12,
"naphthalene-2,3-diamine",C10H10N2,000771-97-1,Nc1cc2ccccc2cc1N,"schultz,tw & applehans,fm (1985) ",1.54,10,10,2,0,0,0,0,0,0,0,,12,
4-phenylpiperidine,C11H15N1,000771-99-3,C1CC(CCN1)c2ccccc2,sangster (1993) ,2.39,11,15,1,0,0,0,0,0,0,0,,12,
ethyl 2-hydroxy-2-phenylacetate,C10H12O3,000774-40-3,CCOC(=O)C(O)c1ccccc1,"hansch,c et al. (1995) ",1.53,10,12,0,3,0,0,0,0,0,0,,13,
"9,10-dihydrophenanthrene",C14H12,000776-35-2,C1Cc2ccccc2c3ccccc13,"hansch,c et al. (1995) ",4.52,14,12,0,0,0,0,0,0,0,0,,14,
ethyl 1h-indole-3-carboxylate,C11H11N1O2,not,CCOC(=O)c1c[nH]c2ccccc12,biobyte (1995) ,3.04,11,11,1,2,0,0,0,0,0,0,,14,
phenyl-piperidin-1-ylmethanone,C12H15N1O1,000776-75-0,O=C(N1CCCCC1)c2ccccc2,"suryanarayana,mvs et al. (1991) ",2.2,12,15,1,1,0,0,0,0,0,0,,14,
3-(4-fluorophenyl)-1-methyl-1-nitrosourea,C8H8F1N3O2,000777-59-3,CN(N=O)C(=O)Nc1ccc(F)cc1,"hansch,c et al. (1995) ",1.88,8,8,3,2,0,0,1,0,0,0,,14,
9-methylanthracene,C15H12,000779-02-2,Cc1c2ccccc2cc3ccccc13,sangster (1993) ,5.07,15,12,0,0,0,0,0,0,0,0,,15,
2-hydroxybenzalaniline,C13H11N1O1,000779-84-0,Oc1ccccc1C=Nc2ccccc2,"hansch,c et al. (1995) ",3.09,13,11,1,1,0,0,0,0,0,0,,15,
"1-methyl-5,5-di(prop-2-enyl)-1,3-diazinane-2,4,6-trione",C11H14N2O3,000780-59-6,CN1C(=O)NC(=O)C(CC=C)(CC=C)C1=O,"hansch,c et al. (1995) ",1.55,11,14,2,3,0,0,0,0,0,0,,16,
"9,10-dimethylanthracene",C16H14,000781-43-1,Cc1c2ccccc2c(C)c3ccccc13,sangster (1993) ,5.69,16,14,0,0,0,0,0,0,0,0,,16,
carbophenthion,C11H16Cl1O2P1S3,000786-19-6,Clc1ccc(SCSP(=S)(OCC)OCC)cc1,"hansch,c et al. (1995) ",5.33,11,16,0,2,3,1,0,1,0,0,,18,
b-2'-deoxythioguanosine,C10H13N5O3S1,000789-61-7,N1C(=S)c2ncn(C3OC(CO)C(O)C3)c2N=C1N,"hansch,c et al. (1995) ",-0.56,10,13,5,3,1,0,0,0,0,0,,19,
diethyl 2-[(4-fluorophenyl)methylidene]propanedioate,C14H15F1O4,000790-53-4,CCOC(=O)C(=Cc1ccc(F)cc1)C(=O)OCC,"hansch,c et al. (1995) ",3.1,14,15,0,4,0,0,1,0,0,0,,19,
hydroxy-tri(phenyl)phosphanium,C18H15O1P1,000791-28-6,O[P+](c1ccccc1)(c2ccccc2)c3ccccc3,"hansch,c et al. (1995) ",2.83,18,15,0,1,0,1,0,0,0,0,,20,
"2,2,4,4-tetramethylpentan-3-one",C9H18O1,000815-24-7,CC(C)(C)C(=O)C(C)(C)C,"hansch,c et al. (1995) ",3,9,18,0,1,0,0,0,0,0,0,,10,
1-nitroso-1-propylurea,C4H9N3O2,000816-57-9,CCCN(N=O)C(N)=O,"hansch,c et al. (1995) ",0.3,4,9,3,2,0,0,0,0,0,0,,9,
2-hydroxyethyl prop-2-enoate,C5H8O3,000818-61-1,OCCOC(=O)C=C,"hansch,c et al. (1995) ",-0.21,5,8,0,3,0,0,0,0,0,0,,8,
"2,2,2-trifluoro-n,n-dimethylethanamine",C4H8F3N1,000819-06-7,CN(C)CC(F)(F)F,"hansch,c et al. (1995) ",1.06,4,8,1,0,0,0,3,0,0,0,,8,
"2-butyne, 1,4-dichloro-",C4H4Cl2,000821-10-3,ClCC#CCCl,"hansch,c et al. (1995) ",2.01,4,4,0,0,0,0,0,2,0,0,,6,
nonan-2-one,C9H18O1,000821-55-6,CCCCCCCC(C)=O,"hansch,c et al. (1995) ",3.14,9,18,0,1,0,0,0,0,0,0,,10,
4-methyl-3h-imidazole,C4H6N2,000822-36-6,Cc1[nH]cnc1,"hansch,c et al. (1995) ",0.23,4,6,2,0,0,0,0,0,0,0,,6,
3-nitrothiophene,C4H3N1O2S1,000822-84-4,[O-][N+](=O)c1cscc1,"hansch,c et al. (1995) ",1.55,4,3,1,2,1,0,0,0,0,0,,8,
"1,2-dichlorocyclohexane -cis",C6H10Cl2,001121-21-7,ClC1C(Cl)CCCC1,"hansch,c et al. (1995) ",3.18,6,10,0,0,0,0,0,2,0,0,,8,
2-methylsulfanylpyrimidine,C5H6N2S1,000823-09-6,CSc1ncccn1,"yamagami,c et al. (1990) ",1.01,5,6,2,0,1,0,0,0,0,0,,8,
"2-methoxybenzene-1,4-diol",C7H8O3,000824-46-4,COc1cc(O)ccc1O,"hansch,c et al. (1995) ",0.47,7,8,0,3,0,0,0,0,0,0,,10,
4-fluorobenzamide,C7H6F1N1O1,000824-75-9,NC(=O)c1ccc(F)cc1,"hansch,c et al. (1995) ",0.91,7,6,1,1,0,0,1,0,0,0,,10,
"benzyl chloride,3-methoxy",C8H9Cl1O1,000824-98-6,ClCc1cccc(OC)c1,biobyte starlist (2009) ,2.68,8,9,0,1,0,0,0,1,0,0,,10,
"1-benzothiophene 1,1-dioxide",C8H6O2S1,000825-44-5,O=[S]1(=O)C=Cc2ccccc12,"hansch,c et al. (1995) ",0.88,8,6,0,2,1,0,0,0,0,0,,11,
2-phenylthiophene,C10H8S1,000825-55-8,s1cccc1c2ccccc2,"hansch,c et al. (1995) ",3.74,10,8,0,0,1,0,0,0,0,0,,11,
"2-phenyl-1,3,4-oxadiazole",C8H6N2O1,000825-56-9,o1cnnc1c2ccccc2,pomona (1987) ,1.31,8,6,2,1,0,0,0,0,0,0,,11,
4-iodobenzenesulfonamide,C6H6I1N1O2S1,000825-86-5,N[S](=O)(=O)c1ccc(I)cc1,"hansch,c et al. (1995) ",1.59,6,6,1,2,1,0,0,0,0,1,,11,
2-methylquinolin-8-ol,C10H9N1O1,000826-81-3,Cc1ccc2cccc(O)c2n1,"hansch,c et al. (1995) ",2.33,10,9,1,1,0,0,0,0,0,0,,12,
5-phenyldithiol-3-one,C9H6O1S2,000827-42-9,O=C1SSC(=C1)c2ccccc2,"bona,m et al. (1995) ",3.01,9,6,0,1,2,0,0,0,0,0,,12,
"2,3,6-trimethylnaphthalene",C13H14,000829-26-5,Cc1ccc2cc(C)c(C)cc2c1,"hansch,c et al. (1995) ",4.73,13,14,0,0,0,0,0,0,0,0,,13,
(4-nitrophenyl) acetate,C8H7N1O4,000830-03-5,CC(=O)Oc1ccc(cc1)[N+]([O-])=O,"hansch,c et al. (1995) ",1.5,8,7,1,4,0,0,0,0,0,0,,13,
"cinnamic acid, p-methoxy-",C10H10O3,000830-09-1,COc1ccc(\C=C\C(O)=O)cc1,"hansch,c et al. (1995) ",2.68,10,10,0,3,0,0,0,0,0,0,,13,
cyclododecanone,C12H22O1,000830-13-7,O=C1CCCCCCCCCCC1,"hansch,c et al. (1995) ",4.1,12,22,0,1,0,0,0,0,0,0,,13,
naphthalen-1-yl acetate,C12H10O2,000830-81-9,CC(=O)Oc1cccc2ccccc12,"hansch,c et al. (1995) ",2.78,12,10,0,2,0,0,0,0,0,0,,14,
3-(1h-indol-3-yl)propanoic acid,C11H11N1O2,000830-96-6,OC(=O)CCc1c[nH]c2ccccc12,"hansch,c et al. (1995) ",1.75,11,11,1,2,0,0,0,0,0,0,,14,
"ethyl 3,4,5-trihydroxybenzoate",C9H10O5,000831-61-8,CCOC(=O)c1cc(O)c(O)c(O)c1,"hansch,c et al. (1995) ",1.3,9,10,0,5,0,0,0,0,0,0,,14,
4-(phenoxy)phenol,C12H10O2,000831-82-3,Oc1ccc(Oc2ccccc2)cc1,"hansch,c et al. (1995) ",3.35,12,10,0,2,0,0,0,0,0,0,,14,
1-methylphenanthrene,C15H12,000832-69-9,Cc1cccc2c1ccc3ccccc23,"wang,l et al. (1986) ",5.08,15,12,0,0,0,0,0,0,0,0,,15,
3-methylphenanthrene,C15H12,002531-84-2,Cc1ccc2ccc3ccccc3c2c1,"veith,gd et al. (1979) ",4.86,15,12,0,0,0,0,0,0,0,0,,15,
"2-phenyl-1,3-benzoxazole",C13H9N1O1,000833-50-1,o1c2ccccc2nc1c3ccccc3,sangster (1993) ,3.67,13,9,1,1,0,0,0,0,0,0,,15,
"n'-ethyl-6-methylsulfanyl-n-propan-2-yl-1,3,5-triazine-2,4-diamine",C9H17N5S1,000834-12-8,CCNc1nc(NC(C)C)nc(SC)n1,"hansch,c et al. (1995) ",2.98,9,17,5,0,1,0,0,0,0,0,,15,
4-nitro-n-phenylaniline,C12H10N2O2,000836-30-6,[O-][N+](=O)c1ccc(Nc2ccccc2)cc1,"hansch,c et al. (1995) ",3.74,12,10,2,2,0,0,0,0,0,0,,16,
1-meo-1-me-3-(cf3-phenyl)urea,C10H11F3N2O2,000838-89-1,FC(F)(F)c1cccc(NC(=O)N(C)OC)c1,"hansch,c et al. (1995) ",2.64,10,11,2,2,0,0,3,0,0,0,,17,
"n'-(3-methoxypropyl)-6-methylsulfanyl-n-propan-2-yl-1,3,5-triazine-2,4-diamine",C11H21N5O1S1,000841-06-5,COCCCNc1nc(NC(C)C)nc(SC)n1,biobyte (1995) ,2.82,11,21,5,1,1,0,0,0,0,0,,18,
4-ethylsulfonylnaphthalene-1-sulfonamide,C12H13N1O4S2,000842-00-2,CC[S](=O)(=O)c1ccc(c2ccccc12)[S](N)(=O)=O,"hansch,c et al. (1995) ",1.24,12,13,1,4,2,0,0,0,0,0,,19,
lorazepam,C15H10Cl2N2O2,000846-49-1,OC1N=C(c2ccccc2Cl)c3cc(Cl)ccc3NC1=O,"hansch,c et al. (1995) ",2.39,15,10,2,2,0,0,0,2,0,0,,21,
temazepam,C16H13Cl1N2O2,000846-50-4,CN1C(=O)C(O)N=C(c2ccccc2)c3cc(Cl)ccc13,"hansch,c et al. (1995) ",2.19,16,13,2,2,0,0,0,1,0,0,,21,
p-methylsulfonylamphenicol,C12H15Cl2N1O5S1,000847-25-6,c1(C(O)C(NC(=O)C(Cl)Cl)CO)ccc(S(=O)(=O)C)cc1,"hansch,c et al. (1995) ",-0.27,12,15,1,5,1,0,0,2,0,0,,21,
1-(4-fluorophenyl)-4-[4-(2-methoxyphenyl)piperazin-1-yl]butan-1-ol,C21H27F1N2O2,000857-62-5,COc1ccccc1N2CCN(CCCC(O)c3ccc(F)cc3)CC2,"kuipers,w et al. (1997) ",3.4,21,27,2,2,0,0,1,0,0,0,,26,
3-(acetyloxymethyl)-8-oxo-7-[(2-phenylacetyl)amino]-5-thia-1-azabicyclo[4.2.0]oct-2-ene-2-carboxylic acid,C18H18N2O6S1,075994-55-7,CC(=O)OCC1=C(N2C(SC1)C(NC(=O)Cc3ccccc3)C2=O)C(O)=O,biobyte (1995) ,0.2,18,18,2,6,1,0,0,0,0,0,,27,
vinblastine,C46H58N4O9,000865-21-4,CC[C@]1(O)C[C@H]2CN(CCc3c([nH]c4ccccc34)[C@@](C2)(C(=O)OC)c5cc6c(cc5OC)N(C)[C@H]7[C@](O)([C@H](OC(C)=O)[C@]8(CC)C=CCN9CC[C@]67[C@H]89)C(=O)OC)C1,sangster (1994) ,3.7,46,58,4,9,0,0,0,0,0,0,,59,
vinglycinate,C48H63N5O9,000865-24-7,CCC1(CC2CC(C3=C(CCN(C2)C1)C4=CC=CC=C4N3)(C5=C(C=C6C(=C5)C78CCN9C7C(C=CC9)(C(C(C8N6C)(C(=O)OC)O)OC(=O)CN(C)C)CC)OC)C(=O)OC)O,sangster (1994) ,4.02,48,63,5,9,0,0,0,0,0,0,,62,
2-hydroxyethyl 2-methylprop-2-enoate,C6H10O3,000868-77-9,CC(=C)C(=O)OCCO,"hansch,c et al. (1995) ",0.47,6,10,0,3,0,0,0,0,0,0,,9,
1-butyl-1-nitrosourea,C5H11N3O2,000869-01-2,CCCCN(N=O)C(N)=O,"hansch,c et al. (1995) ",1.04,5,11,3,2,0,0,0,0,0,0,,10,
1-acetyloxyprop-2-enyl acetate,C7H10O4,000869-29-4,CC(=O)OC(OC(C)=O)C=C,chemicals inspection and testing institu (1992) ,0.78,7,10,0,4,0,0,0,0,0,0,,11,
dec-1-ene,C10H20,000872-05-9,CCCCCCCCC=C,amer petroleum institute (1994) ,5.7,10,20,0,0,0,0,0,0,0,0,,10,
3-bromothiophene,C4H3Br1S1,000872-31-1,Brc1cscc1,"hansch,c et al. (1995) ",2.62,4,3,0,0,1,0,0,0,1,0,,6,
1-methylpyrrolidin-2-one,C5H9N1O1,000872-50-4,CN1CCCC1=O,"sasaki,h et al. (1988) ",-0.38,5,9,1,1,0,0,0,0,0,0,,7,
2-ethylthiophene,C6H8S1,000872-55-9,CCc1sccc1,"hansch,c et al. (1995) ",2.87,6,8,0,0,1,0,0,0,0,0,,7,
pyridine-4-carbaldehyde,C6H5N1O1,000872-85-5,O=Cc1ccncc1,"hansch,c et al. (1995) ",0.43,6,5,1,1,0,0,0,0,0,0,,8,
cyclopropylbenzene,C9H10,000873-49-4,C1CC1c2ccccc2,"hansch,c et al. (1995) ",3.27,9,10,0,0,0,0,0,0,0,0,,9,
3-hydroxybenzonitrile,C7H5N1O1,000873-62-1,Oc1cccc(c1)C#N,"hansch,c et al. (1995) ",1.7,7,5,1,1,0,0,0,0,0,0,,9,
m-chlorobenzyl alcohol,C7H7Cl1O1,000873-63-2,OCc1cccc(Cl)c1,"hansch,c et al. (1995) ",1.94,7,7,0,1,0,0,0,1,0,0,,9,
p-chlorobenzyl alcohol,C7H7Cl1O1,000873-76-7,OCc1ccc(Cl)cc1,"hansch,c et al. (1995) ",1.96,7,7,0,1,0,0,0,1,0,0,,9,
"1,3-dimethylpyrimidine-2,4-dione",C6H8N2O2,000874-14-6,CN1C=CC(=O)N(C)C1=O,"hansch,c et al. (1995) ",-0.54,6,8,2,2,0,0,0,0,0,0,,10,
"1-ethyl-2,4-dimethylbenzene",C10H14,000874-41-9,CCc1ccc(C)cc1C,"sherblom,pm & eganhouse,rp (1988) ",4.47,10,14,0,0,0,0,0,0,0,0,,10,
4-methoxybenzonitrile,C8H7N1O1,000874-90-8,COc1ccc(cc1)C#N,"wang,w et al. (1987) ",1.7,8,7,1,1,0,0,0,0,0,0,,10,
"1,2-dimethylindole",C10H11N1,000875-79-6,Cn1c(C)cc2ccccc12,"hansch,c et al. (1995) ",2.82,10,11,1,0,0,0,0,0,0,0,,11,
"(2,6-dimethylphenyl) acetate",C10H12O2,000876-98-2,CC(=O)Oc1c(C)cccc1C,"sotomatsu,t et al. (1993) ",2.32,10,12,0,2,0,0,0,0,0,0,,12,
"2,3,4,5,6-pentachlorotoluene",C7H3Cl5,000877-11-2,Cc1c(Cl)c(Cl)c(Cl)c(Cl)c1Cl,biobyte (1995) ,5.62,7,3,0,0,0,0,0,5,0,0,,12,
2-hydroxy-3-methoxybenzoic acid,C8H8O4,000877-22-5,COc1cccc(C(O)=O)c1O,"hansch,c et al. (1995) ",1.94,8,8,0,4,0,0,0,0,0,0,,12,
n-(2-phenylethyl)acetamide,C10H13N1O1,000877-95-2,CC(=O)NCCc1ccccc1,"radzicka,a & wolfenden,r (1988) ",1.19,10,13,1,1,0,0,0,0,0,0,,12,
"2,3,4,5-tetrachloronitrobenzene",C6H1Cl4N1O2,000879-39-0,[O-][N+](=O)c1cc(Cl)c(Cl)c(Cl)c1Cl,"niimi,aj et al. (1989) ",3.93,6,1,1,2,0,0,0,4,0,0,,13,
2-nitro-4-chloroacetanilide,C8H7Cl1N2O3,000881-51-6,Clc1ccc(NC(=O)(C))c(N(=O)(=O))c1,"nakagawa,y et al. (1992) ",1.78,8,7,2,3,0,0,0,1,0,0,,14,
2-(p-clphenoxy)2-me-propionic acid,C10H11Cl1O3,000882-09-7,C(C)(C)(Oc1ccc(Cl)cc1)C(=O)(O),"hansch,c et al. (1995) ",2.57,10,11,0,3,0,0,0,1,0,0,,14,
"propanamide, n-(3,4-dichlorophenyl)-",C10H11Cl2N1O1,000882-14-4,CCC(=O)Nc1ccc(Cl)c(Cl)c1,pomona (1987) ,3.72,10,11,1,1,0,0,0,2,0,0,,14,
phenyldisulfanylbenzene,C12H10S2,000882-33-7,S(Sc1ccccc1)c2ccccc2,"hansch,c et al. (1995) ",4.41,12,10,0,0,2,0,0,0,0,0,,14,
1-hexylbenzotriazole,C12H17N3,000883-57-8,CCCCCCn1nnc2ccccc12,"hansch,c et al. (1995) ",3.7,12,17,3,0,0,0,0,0,0,0,,15,