Names,Formula,CAS No,SMILES,Reference,Exp logp,C,H,N,O,S,P,F,Cl,Br,I,,,
4-(hydroxymethyl)benzoic acid,C8H8O3,003006-96-0,OCc1ccc(cc1)C(O)=O,"hansch,c et al. (1995) ",0.93,8,8,0,3,0,0,0,0,0,0,,11,
thiocyanatomethylbenzene,C8H7N1S1,003012-37-1,N#CSCc1ccccc1,"hansch,c et al. (1995) ",1.99,8,7,1,0,1,0,0,0,0,0,,10,
4-cyanobenzamide,C8H6N2O1,003034-34-2,NC(=O)c1ccc(cc1)C#N,"nakagawa,y et al. (1992) ",0.48,8,6,2,1,0,0,0,0,0,0,,11,
4-nitro-3h-imidazole,C3H3N3O2,088054-21-1,[O-][N+](=O)c1[nH]cnc1,"hansch,c et al. (1995) ",-0.01,3,3,3,2,0,0,0,0,0,0,,8,
[2-(trifluoromethyl)phenyl] acetate,C9H7F3O2,003038-48-0,CC(=O)Oc1ccccc1C(F)(F)F,"hansch,c et al. (1995) ",2.59,9,7,0,2,0,0,3,0,0,0,,14,
2-piperidin-1-ylethanol,C7H15N1O1,003040-44-6,OCCN1CCCCC1,"hansch,c et al. (1995) ",0.96,7,15,1,1,0,0,0,0,0,0,,9,
2-phenyl-1h-pyrrole,C10H9N1,003042-22-6,[nH]1cccc1c2ccccc2,sangster (1993) ,2.76,10,9,1,0,0,0,0,0,0,0,,11,
3-(phenoxy)propanenitrile,C9H9N1O1,003055-86-5,N#CCCOc1ccccc1,"hansch,c et al. (1995) ",1.61,9,9,1,1,0,0,0,0,0,0,,11,
"1-[5-(hydroxymethyl)-2,5-dihydrofuran-2-yl]-5-methylpyrimidine-2,4-dione",C10H12N2O4,003056-17-5,CC1=CN(C2OC(CO)C=C2)C(=O)NC1=O,sangster (1993) ,-0.72,10,12,2,4,0,0,0,0,0,0,,16,
(2-ethylphenyl) acetate,C10H12O2,003056-59-5,CCc1ccccc1OC(C)=O,"hansch,c et al. (1995) ",2.42,10,12,0,2,0,0,0,0,0,0,,12,
(3-ethylphenyl) acetate,C10H12O2,003056-60-8,CCc1cccc(OC(C)=O)c1,"sotomatsu,t et al. (1993) ",2.45,10,12,0,2,0,0,0,0,0,0,,12,
3-(4-bromophenyl)-1-methoxy-1-methylurea,C9H11Br1N2O2,003060-89-7,CON(C)C(=O)Nc1ccc(Br)cc1,"briggs,gg (1981) ",2.38,9,11,2,2,0,0,0,0,1,0,,14,
2-[(2-amino-4-methylpentanoyl)amino]-3-phenylpropanoic acid,C15H22N2O3,003303-55-7,CC(C)CC(N)C(=O)NC(Cc1ccccc1)C(O)=O,biobyte starlist (2009) ,-1.17,15,22,2,3,0,0,0,0,0,0,,20,
bis(trichloromethyl)sulfone,C2Cl6O2S1,003064-70-8,ClC(Cl)(Cl)[S](=O)(=O)C(Cl)(Cl)Cl,usepa red ,3.3,2,0,0,2,1,0,0,6,0,0,,11,
"1,4-benzenediol, 2,3-dimethoxy-5-methyl-",C9H12O4,003066-90-8,COc1c(O)cc(C)c(O)c1OC,"rich,pr (1990) ",1.05,9,12,0,4,0,0,0,0,0,0,,13,
diethyl (4-methylsulfanylphenyl) phosphate,C11H17O4P1S1,003070-13-1,CCO[P](=O)(OCC)Oc1ccc(SC)cc1,"hansch,c & leo,aj (1985) ",2.79,11,17,0,4,1,1,0,0,0,0,,17,
diethoxy-(4-methylsulfanylphenoxy)-sulfanylidenephosphorane,C11H17O3P1S2,003070-15-3,CCO[P](=S)(OCC)Oc1ccc(SC)cc1,"hansch,c et al. (1995) ",4.16,11,17,0,3,2,1,0,0,0,0,,17,
2-[2-hydroxyethyl-(4-methylphenyl)amino]ethanol,C11H17N1O2,003077-12-1,Cc1ccc(cc1)N(CCO)CCO,sangster (1993) ,1.09,11,17,1,2,0,0,0,0,0,0,,14,
n-(4-methylphenyl)formamide,C8H9N1O1,003085-54-9,Cc1ccc(NC=O)cc1,"hansch,c et al. (1995) ",1.61,8,9,1,1,0,0,0,0,0,0,,10,
2-[2-[4-[3-[2-(trifluoromethyl)phenothiazin-10-yl]propyl]piperazin-1-yl]ethoxy]ethanol,C24H30F3N3O2S1,003093-23-0,OCCOCCN1CCN(CCCN2c3ccccc3Sc4ccc(cc24)C(F)(F)F)CC1,pomona (1987) ,4.49,24,30,3,2,1,0,3,0,0,0,,33,
3-nitrofluoren-9-one,C13H7N1O3,042135-22-8,[O-][N+](=O)c1ccc2C(=O)c3ccccc3c2c1,"debnath,ak & hansch,c (1992) ",3.06,13,7,1,3,0,0,0,0,0,0,,17,
"1,3-dimethylbenzimidazol-2-one",C9H10N2O1,003097-21-0,CN1C(=O)N(C)c2ccccc12,"hansch,c et al. (1995) ",1.46,9,10,2,1,0,0,0,0,0,0,,12,
methylsulfonylbenzene,C7H8O2S1,003112-85-4,C[S](=O)(=O)c1ccccc1,"hansch,c et al. (1995) ",0.5,7,8,0,2,1,0,0,0,0,0,,10,
phenylmethylsulfonylbenzene,C13H12O2S1,003112-88-7,O=[S](=O)(Cc1ccccc1)c2ccccc2,"hansch,c et al. (1995) ",2.05,13,12,0,2,1,0,0,0,0,0,,16,
5-methyl-2-nitrobenzoic acid,C8H7N1O4,003113-72-2,Cc1ccc(c(c1)C(O)=O)[N+]([O-])=O,biobyte starlist (2009) ,1.63,8,7,1,4,0,0,0,0,0,0,,13,
2-butylhexanoic acid,C10H20O2,031080-39-4,CCCCC(CCCC)C(O)=O,sangster (1993) ,3.2,10,20,0,2,0,0,0,0,0,0,,12,
dicloxacillin,C19H17Cl2N3O5S1,003116-76-5,Cc1onc(c1C(=O)N[C@H]2[C@H]3SC(C)(C)[C@@H](N3C2=O)C(O)=O)c4c(Cl)cccc4Cl,"hansch,c et al. (1995) ",2.91,19,17,3,5,1,0,0,2,0,0,,30,
"2,3-dimethoxycyclohexa-2,5-diene-1,4-dione",C8H8O4,003117-02-0,COC1=C(OC)C(=O)C=CC1=O,"huang,jx et al. (1985) ",0.34,8,8,0,4,0,0,0,0,0,0,,12,
"2,3,5-trimethoxycyclohexa-2,5-diene-1,4-dione",C9H10O5,003117-05-3,COC1=CC(=O)C(=C(OC)C1=O)OC,"huang,jx et al. (1985) ",0.22,9,10,0,5,0,0,0,0,0,0,,14,
"2,3,5,6-tetramethoxycyclohexa-2,5-diene-1,4-dione",C10H12O6,003117-06-4,COC1=C(OC)C(=O)C(=C(OC)C1=O)OC,"huang,jx et al. (1985) ",0.41,10,12,0,6,0,0,0,0,0,0,,16,
zinc00116179,C7H6N2O2S1,003118-68-1,N[S](=O)(=O)c1cccc(c1)C#N,"carotti,a et al. (1989) ",0.24,7,6,2,2,1,0,0,0,0,0,,12,
4-cyanobenzenesulfonamide,C7H6N2O2S1,003119-02-6,N[S](=O)(=O)c1ccc(cc1)C#N,"hansch,c et al. (1995) ",0.23,7,6,2,2,1,0,0,0,0,0,,12,
2-methoxyethyl prop-2-enoate,C6H10O3,003121-61-7,COCCOC(=O)C=C,"lawson,rg & jurs,pc (1990) ",0.56,6,10,0,3,0,0,0,0,0,0,,9,
3-isothiocyanatophenol,C7H5N1O1S1,003125-63-1,Oc1cccc(c1)N=C=S,"augustin,s et al. (1987) ",3.23,7,5,1,1,1,0,0,0,0,0,,10,
1-isothiocyanato-3-methoxybenzene,C8H7N1O1S1,003125-64-2,COc1cccc(c1)N=C=S,"augustin,s et al. (1987) ",3.68,8,7,1,1,1,0,0,0,0,0,,11,
3-isothiocyanatobenzonitrile,C8H4N2S1,003125-78-8,S=C=Nc1cccc(c1)C#N,"augustin,s et al. (1987) ",3.13,8,4,2,0,1,0,0,0,0,0,,11,
"dibutyl benzene-1,3-dicarboxylate",C16H22O4,003126-90-7,CCCCOC(=O)c1cccc(c1)C(=O)OCCCC,pomona (1987) ,4.26,16,22,0,4,0,0,0,0,0,0,,20,
2-(bromomethyl)oxirane,C3H5Br1O1,003132-64-7,BrCC1CO1,"deneer,jw et al. (1988) ",0.85,3,5,0,1,0,0,0,0,1,0,,5,
2-cl tetramethylmelamine,C7H12Cl1N5,003140-74-7,Clc1nc(N(C)C)nc(N(C)C)n1,"hansch,c et al. (1995) ",2.31,7,12,5,0,0,0,0,1,0,0,,13,
"2,3-dibromothiophene",C4H2Br2S1,003140-93-0,Brc1sccc1Br,"hansch,c et al. (1995) ",3.53,4,2,0,0,1,0,0,0,2,0,,7,
"benzene, 1,1'-(2,2-dichlorocyclopropylidene)bis-",C15H12Cl2,003141-42-2,ClC1(Cl)CC1(c2ccccc2)c3ccccc3,"nishimura,k et al. (1986) ",4.88,15,12,0,0,0,0,0,2,0,0,,17,
3146-39-2,C7H10O1,003146-39-2,C1CC2CC1C3OC23,"lodge,kb (1999) ",1.58,7,10,0,1,0,0,0,0,0,0,,8,
"2,6-dihydroxybenzamide",C7H7N1O3,003147-50-0,NC(=O)c1c(O)cccc1O,biobyte starlist (2009) ,0.6,7,7,1,3,0,0,0,0,0,0,,11,
3-phenylsulfonyl-1-propan-2-ylurea,C10H14N2O3S1,003149-01-7,CC(C)NC(=O)N[S](=O)(=O)c1ccccc1,"cloux,jl et al. (1988) ",1.34,10,14,2,3,1,0,0,0,0,0,,16,
2-methoxypyrazine,C5H6N2O1,003149-28-8,COc1cnccn1,"yamagami,c et al. (1990a) ",0.73,5,6,2,1,0,0,0,0,0,0,,8,
4-(4-methoxyphenyl)-4-oxobutanoic acid,C11H12O4,003153-44-4,COc1ccc(cc1)C(=O)CCC(O)=O,"kuchar,m et al. (1985) ",1.38,11,12,0,4,0,0,0,0,0,0,,15,
"3-buten-2-one, 4-(4-hydroxyphenyl)-",C10H10O2,003160-35-8,CC(=O)C=Cc1ccc(O)cc1,"yamagami,c et al. (1998) ",1.86,10,10,0,2,0,0,0,0,0,0,,12,
"3-buten-2-one, 4-(4-methylphenyl)-",C11H12O1,003160-38-1,CC(=O)C=Cc1ccc(C)cc1,"yamagami,c et al. (1998) ",2.65,11,12,0,1,0,0,0,0,0,0,,12,
"3-buten-2-one,4-(4-chlorophenyl)-",C10H9Cl1O1,003160-40-5,CC(=O)C=Cc1ccc(Cl)cc1,"yamagami,c et al. (1998) ",2.8,10,9,0,1,0,0,0,1,0,0,,12,
tert-butylcyclohexane,C10H20,003178-22-1,CC(C)(C)C1CCCCC1,"ritter,s et al. (1995) ",5.04,10,20,0,0,0,0,0,0,0,0,,10,
3-methoxy b-nitrostyrene,C9H9N1O3,003179-09-7,COc1cc(C=CN(=O)(=O))ccc1,"hansch,c & leo,aj (1985) ",2.37,9,9,1,3,0,0,0,0,0,0,,13,
4-methoxy-b-nitrostyrene,C9H9N1O3,003179-10-0,COc1ccc(C=CN(=O)(=O))cc1,"hansch,c & leo,aj (1985) ",2.2,9,9,1,3,0,0,0,0,0,0,,13,
ethyl 1-benzofuran-2-carboxylate,C11H10O3,003199-61-9,CCOC(=O)c1oc2ccccc2c1,"yamagami,c et al. (1994) ",3.05,11,10,0,3,0,0,0,0,0,0,,14,
"benzamide, n-[(methylamino)carbonyl]",C9H10N2O2,003201-53-4,CNC(=O)NC(=O)c1ccccc1,"sotomatsu,t et al. (1987) ",1.27,9,10,2,2,0,0,0,0,0,0,,13,
2-ethylfuran,C6H8O1,003208-16-0,CCc1occc1,"hansch,c et al. (1995) ",2.4,6,8,0,1,0,0,0,0,0,0,,7,
"2,3-dichloronitrobenzene",C6H3Cl2N1O2,003209-22-1,[O-][N+](=O)c1cccc(Cl)c1Cl,"hansch,c et al. (1995) ",3.05,6,3,1,2,0,0,0,2,0,0,,11,
chlorothiazide-3-benzyl,C14H12Cl1N3O4S2,003211-40-3,c1ccc(CC2NS(=O)(=O)c3c(cc(Cl)c(S(=O)(=O)N)c3)N=2)cc1,sangster (1994) ,1.7,14,12,3,4,2,0,0,1,0,0,,24,
2-(phenylmethylamino)propan-1-ol,C10H15N1O1,003217-09-2,CC(CO)NCc1ccccc1,"hansch,c et al. (1995) ",1.28,10,15,1,1,0,0,0,0,0,0,,12,
"1,3-dibromo-2,2-bis(bromomethyl)propane",C5H8Br4,003229-00-3,BrCC(CBr)(CBr)CBr,chemicals inspection and testing institu (1992) ,3.99,5,8,0,0,0,0,0,0,4,0,,9,
p-methylbenzaldoxime,C8H9N1O1,003235-02-7,Cc1ccc(cc1)/C=N/O,"hansch,c et al. (1995) ",2.4,8,9,1,1,0,0,0,0,0,0,,10,
"2-(4-bromobutyl)isoindole-1,3-dione",C12H12Br1N1O2,003236-48-4,BrCCCCN1C(=O)c2ccccc2C1=O,"hansch,c et al. (1995) ",2.96,12,12,1,2,0,0,0,0,1,0,,16,
2-(furan-2-ylmethylidene)propanedinitrile,C8H4N2O1,003237-22-7,N#CC(=Cc1occc1)C#N,"balaz,s et al. (1985) ",1.4,8,4,2,1,0,0,0,0,0,0,,11,
(4-ethylphenyl) acetate,C10H12O2,003245-23-6,CCc1ccc(OC(C)=O)cc1,"hansch,c et al. (1995) ",2.56,10,12,0,2,0,0,0,0,0,0,,12,
convallotoxol,C29H44O10,003253-62-1,C45(O)CCC(C6COC(=O)C=6)C4(C)CCC1C5CCC2(O)CC(OC3OC(C)C(O)C(O)C3O)CCC12,"hansch,c et al. (1995) ",-0.62,29,44,0,10,0,0,0,0,0,0,,39,
2-(4-methylphenyl)ethanamine,C9H13N1,003261-62-9,Cc1ccc(CCN)cc1,sangster (1993) ,1.83,9,13,1,0,0,0,0,0,0,0,,10,
4-amino-n-(5-ethylpyrimidin-2-yl)benzenesulfonamide,C12H14N4O2S1,003271-01-0,CCc1cnc(N[S](=O)(=O)c2ccc(N)cc2)nc1,"hansch,c et al. (1995) ",0.9,12,14,4,2,1,0,0,0,0,0,,19,
2-propylhexanoic acid,C9H18O2,003274-28-0,CCCCC(CCC)C(O)=O,sangster (1993) ,3.01,9,18,0,2,0,0,0,0,0,0,,11,
"2,2-bis(2-methylprop-2-enoyloxymethyl)butyl 2-methylprop-2-enoate",C18H26O6,003290-92-4,CCC(COC(=O)C(C)=C)(COC(=O)C(C)=C)COC(=O)C(C)=C,chemicals inspection and testing institu (1992) ,4.39,18,26,0,6,0,0,0,0,0,0,,24,
4-methoxybenzohydrazide,C8H10N2O2,003290-99-1,COc1ccc(cc1)C(=O)NN,"hansch,c et al. (1995) ",0.25,8,10,2,2,0,0,0,0,0,0,,12,
"2,2-bis(bromomethyl)propane-1,3-diol",C5H10Br2O2,003296-90-0,OCC(CO)(CBr)CBr,"hansch,c et al. (1995) ",1.06,5,10,0,2,0,0,0,0,2,0,,9,
2-[(2-amino-4-methylpentanoyl)amino]-4-methylpentanoic acid,C12H24N2O3,003303-31-9,CC(C)CC(N)C(=O)NC(CC(C)C)C(O)=O,biobyte starlist (2009) ,-1.47,12,24,2,3,0,0,0,0,0,0,,17,
2-[(2-amino-3-phenylpropanoyl)amino]-4-methylpentanoic acid,C15H22N2O3,003303-55-7,CC(C)CC(NC(=O)C(N)Cc1ccccc1)C(O)=O,biobyte starlist (2009) ,-1.17,15,22,2,3,0,0,0,0,0,0,,20,
2-(p-chlorophenoxy)propionic acid,C9H9Cl1O3,003307-39-9,CC(Oc1ccc(Cl)cc1)C(O)=O,"hansch,c et al. (1995) ",2.31,9,9,0,3,0,0,0,1,0,0,,13,
"4-(dihydroxyamino)benzene-1,2-diol",C6H5N1O4,003316-09-4,ON(O)c1ccc(O)c(O)c1,"hansch,c et al. (1995) ",1.66,6,5,1,4,0,0,0,0,0,0,,11,
dithiol-3-one,C3H2O1S2,003326-88-3,O=C1SSC=C1,"bona,m et al. (1995) ",0.82,3,2,0,1,2,0,0,0,0,0,,6,
methyl n-(4-aminophenyl)sulfonylcarbamate,C8H10N2O4S1,003337-71-1,COC(=O)N[S](=O)(=O)c1ccc(N)cc1,"hansch,c et al. (1995) ",-0.27,8,10,2,4,1,0,0,0,0,0,,15,
"4-(1,2-dihydroxyethyl)benzene-1,2-diol",C8H10O4,003343-19-9,OCC(O)c1ccc(O)c(O)c1,"hansch,c et al. (1995) ",-1.01,8,10,0,4,0,0,0,0,0,0,,12,
(isothiocyanato-phenylmethyl)benzene,C14H11N1S1,003550-21-8,S=C=NC(c1ccccc1)c2ccccc2,sangster (1993) ,5.09,14,11,1,0,1,0,0,0,0,0,,16,
4-phenyldithiole-3-thione,C9H6S3,003354-37-8,S=C1SSC=C1c2ccccc2,"bona,m et al. (1995) ",3.2,9,6,0,0,3,0,0,0,0,0,,12,
"4,5-dimethyldithiole-3-thione",C5H6S3,003354-39-0,CC1=C(C)C(=S)SS1,"bona,m et al. (1995) ",2.45,5,6,0,0,3,0,0,0,0,0,,8,
5-methyldithiole-3-thione,C4H4S3,003354-40-3,CC1=CC(=S)SS1,"bona,m et al. (1995) ",1.89,4,4,0,0,3,0,0,0,0,0,,7,
4-methyldithiole-3-thione,C4H4S3,003354-41-4,CC1=CSSC1=S,"bona,m et al. (1995) ",2.18,4,4,0,0,3,0,0,0,0,0,,7,
"1,2-benzodithiole-3-thione",C7H4S3,003354-42-5,S=C1SSc2ccccc12,"bona,m et al. (1995) ",3.57,7,4,0,0,3,0,0,0,0,0,,10,
"1h-1,2,4-triazole, 3-phenyl-",C8H7N3,003357-42-4,[nH]1cnc(n1)c2ccccc2,sangster (1993) ,1.54,8,7,3,0,0,0,0,0,0,0,,11,
4-phenylbutan-1-ol,C10H14O1,003360-41-6,OCCCCc1ccccc1,"hansch,c et al. (1995) ",2.35,10,14,0,1,0,0,0,0,0,0,,11,
1-(2-methyl-5-nitroimidazol-1-yl)propan-2-ol,C7H11N3O3,003366-95-8,CC(O)Cn1c(C)ncc1[N+]([O-])=O,"hansch,c et al. (1995) ",0.22,7,11,3,3,0,0,0,0,0,0,,13,
"5-chloro-2-(2,4-dichlorophenoxy)phenol",C12H7Cl3O2,003380-34-5,Oc1cc(Cl)ccc1Oc2ccc(Cl)cc2Cl,chemicals inspection and testing institu (1992) ,4.76,12,7,0,2,0,0,0,3,0,0,,17,
[4-(4-dimethoxyphosphinothioyloxyphenyl)sulfanylphenoxy]-dimethoxy-sulfanylidenephosphorane,C16H20O6P2S3,003383-96-8,CO[P](=S)(OC)Oc1ccc(Sc2ccc(O[P](=S)(OC)OC)cc2)cc1,"hansch,c et al. (1995) ",5.96,16,20,0,6,3,2,0,0,0,0,,27,
"4,5,7-tricl-2-cf3-benzimidazole",C8H2Cl3F3N2,003393-59-7,C1=C(C2=C(C(=C1Cl)Cl)NC(=N2)C(F)(F)F)Cl,"hansch,c et al. (1995) ",3.78,8,2,2,0,0,0,3,3,0,0,,16,
4-methoxycinnoline,C9H8N2O1,003397-78-2,COc1cnnc2ccccc12,"hansch,c et al. (1995) ",1.41,9,8,2,1,0,0,0,0,0,0,,12,
"1-[5-(hydroxymethyl)oxolan-2-yl]-5-methylpyrimidine-2,4-dione",C10H14N2O4,003416-05-5,CC1=CN(C2CCC(CO)O2)C(=O)NC1=O,sangster (1993) ,-0.6,10,14,2,4,0,0,0,0,0,0,,16,
"2-[4-[4,4-bis(4-fluorophenyl)butyl]piperazin-1-yl]-n-(2,6-dimethylphenyl)acetamide",C30H35F2N3O1,003416-26-0,Cc1cccc(C)c1NC(=O)CN2CCN(CCCC(c3ccc(F)cc3)c4ccc(F)cc4)CC2,biobyte (1995) ,5.6,30,35,3,1,0,0,2,0,0,0,,36,
4-methoxybenzamide,C8H9N1O2,003424-93-9,COc1ccc(cc1)C(N)=O,"hansch,c et al. (1995) ",0.86,8,9,1,2,0,0,0,0,0,0,,11,
6-methylpyrimidin-4-amine,C5H7N3,003435-28-7,Cc1cc(N)ncn1,"hansch,c et al. (1995) ",0.19,5,7,3,0,0,0,0,0,0,0,,8,
4-phenylpyrimidine,C10H8N2,003438-48-0,c1ccc(cc1)c2ccncn2,"hansch,c et al. (1995) ",1.92,10,8,2,0,0,0,0,0,0,0,,12,
3-cyanobenzamide,C8H6N2O1,003441-01-8,NC(=O)c1cccc(c1)C#N,"nakagawa,y et al. (1992) ",0.52,8,6,2,1,0,0,0,0,0,0,,11,
5-phenyldithiole-3-thione,C9H6S3,003445-76-9,S=C1SSC(=C1)c2ccccc2,"bona,m et al. (1995) ",3.67,9,6,0,0,3,0,0,0,0,0,,12,
3-methyl-3h-2-benzofuran-1-one,C9H8O2,003453-64-3,CC1OC(=O)c2ccccc12,"hansch,c et al. (1995) ",1.41,9,8,0,2,0,0,0,0,0,0,,11,
1-ethenyl-4-ethylbenzene,C10H12,003454-07-7,CCc1ccc(C=C)cc1,chemicals inspection and testing institu (1992) ,4.19,10,12,0,0,0,0,0,0,0,0,,10,
"3-phenyl-1,3-dihydroindol-2-one",C14H11N1O1,003456-79-9,O=C1Nc2ccccc2C1c3ccccc3,sangster (1993) ,2.59,14,11,1,1,0,0,0,0,0,0,,16,
4-(4-methylphenyl)dithiole-3-thione,C10H8S3,003467-29-6,Cc1ccc(cc1)C2=CSSC2=S,"bona,m et al. (1995) ",3.73,10,8,0,0,3,0,0,0,0,0,,13,
4-phenyldithiol-3-one,C9H6O1S2,003467-32-1,O=C1SSC=C1c2ccccc2,"bona,m et al. (1995) ",2.64,9,6,0,1,2,0,0,0,0,0,,12,
4-iodo-1h-pyrazole,C3H3I1N2,003469-69-0,Ic1c[nH]nc1,"hansch,c et al. (1995) ",1.7,3,3,2,0,0,0,0,0,0,1,,6,
"1,1,3-trimethyl-3-nitrosourea",C4H9N3O2,003475-63-6,CN(C)C(=O)N(C)N=O,"hansch,c et al. (1995) ",0.36,4,9,3,2,0,0,0,0,0,0,,9,
"7-amino-1,2,3,10-tetramethoxy-6,7-dihydro-5h-benzo[g]heptalen-9-one",C20H23N1O5,003476-50-4,COC1=CC=C2C(=CC1=O)C(N)CCc3cc(OC)c(OC)c(OC)c23,"hansch,c et al. (1995) ",1.1,20,23,1,5,0,0,0,0,0,0,,26,
piperalin,C16H21Cl2N1O2,003478-94-2,CC1CCCCN1CCCOC(=O)c2ccc(Cl)c(Cl)c2,"tomlin,c (1997) ",4.31,16,21,1,2,0,0,0,2,0,0,,21,
"2,3,5,6-tetrachloroaniline",C6H3Cl4N1,003481-20-7,Nc1c(Cl)c(Cl)cc(Cl)c1Cl,sangster (1994) ,4.1,6,3,1,0,0,0,0,4,0,0,,11,
2-cyclohexyloxirane,C8H14O1,003483-39-4,C1CCC(CC1)C2CO2,"serrentino,r et al. (1983) ",2.43,8,14,0,1,0,0,0,0,0,0,,9,
"6-[(1-aminocyclohexanecarbonyl)amino]-3,3-dimethyl-7-oxo-4-thia-1-azabicyclo[3.2.0]heptane-2-carboxylic acid",C15H23N3O4S1,003485-14-1,CC1(C)SC2C(NC(=O)C3(N)CCCCC3)C(=O)N2C1C(O)=O,sangster (1994) ,1.31,15,23,3,4,1,0,0,0,0,0,,23,
"1-methyl-2-oxo-5-phenyl-3h-1,4-benzodiazepine-7-carbonitrile",C17H13N3O1,003489-59-6,CN1C(=O)CN=C(c2ccccc2)c3cc(ccc13)C#N,"hansch,c et al. (1995) ",1.8,17,13,3,1,0,0,0,0,0,0,,21,
"3-buten-2-one,4-(4-nitrophenyl)-",C10H9N1O3,003490-37-7,CC(=O)C=Cc1ccc(N(=O)(=O))cc1,"yamagami,c et al. (1998) ",1.9,10,9,1,3,0,0,0,0,0,0,,14,
butanehydrazide,C4H10N2O1,003538-65-6,CCCC(=O)NN,"hansch,c et al. (1995) ",-0.62,4,10,2,1,0,0,0,0,0,0,,7,
3-aminobenzamide,C7H8N2O1,003544-24-9,NC(=O)c1cccc(N)c1,"hansch,c et al. (1995) ",-0.33,7,8,2,1,0,0,0,0,0,0,,10,
n'-ipr-(4-clphenoxy)acetic hydrazide,C11H15Cl1N2O2,003544-35-2,Clc1ccc(OCC(=O)NNC(C)C)cc1,"hansch,c et al. (1995) ",2.02,11,15,2,2,0,0,0,1,0,0,,16,
2-octylsulfanylethanol,C10H22O1S1,003547-33-9,CCCCCCCCSCCO,"tomlin,c (1994) ",3.64,10,22,0,1,1,0,0,0,0,0,,12,
4-butan-2-yl-2-nitrophenol,C10H13N1O3,003555-18-8,CCC(C)c1ccc(O)c(c1)[N+]([O-])=O,"schwarzenbach,rp et al. (1988) ",3.84,10,13,1,3,0,0,0,0,0,0,,14,
"2,6-di(phenyl)pyridine",C17H13N1,003558-69-8,c1ccc(cc1)c2cccc(n2)c3ccccc3,"hansch,c et al. (1995) ",4.82,17,13,1,0,0,0,0,0,0,0,,18,
(3-methyl-4-methylsulfanylphenyl) n-methylcarbamate,C10H13N1O2S1,003566-00-5,CNC(=O)Oc1ccc(SC)c(C)c1,"hansch,c et al. (1995) ",2.47,10,13,1,2,1,0,0,0,0,0,,14,
"3-(3,4-dichlorophenyl)-1-methylurea",C8H8Cl2N2O1,003567-62-2,CNC(=O)Nc1ccc(Cl)c(Cl)c1,"briggs,gg (1981) ",2.94,8,8,2,1,0,0,0,2,0,0,,13,
4-(4-aminophenyl)sulfonyl-n-ethylaniline,C14H16N2O2S1,003572-34-7,CCNc1ccc(cc1)[S](=O)(=O)c2ccc(N)cc2,"altomare,c et al. (1991) ",1.98,14,16,2,2,1,0,0,0,0,0,,19,
1-(4-methoxyphenyl)-n-phenylmethanimine oxide,C14H13N1O2,003585-93-1,COc1ccc(cc1)C=[N+]([O-])c2ccccc2,"kirchner,jj et al. (1985) ",1.94,14,13,1,2,0,0,0,0,0,0,,17,
"[2-(11,17-dihydroxy-10,13-dimethyl-3-oxo-2,6,7,8,9,11,12,14,15,16-decahydro-1h-cyclopenta[a]phenanthren-17-yl)-2-oxoethyl] hexanoate",C27H40O6,003593-96-2,CCCCCC(=O)OCC(=O)C1(O)CCC2C3CCC4=CC(=O)CCC4(C)C3C(O)CC12C,"hansch,c et al. (1995) ",4.48,27,40,0,6,0,0,0,0,0,0,,33,
"2-methylthio-4,6-bis(trichloromethyl)-s-triazine",C6H3Cl6N3S1,003599-76-6,CSc1nc(nc(n1)C(Cl)(Cl)Cl)C(Cl)(Cl)Cl,"sato,y et al. (1993) ",4.42,6,3,3,0,1,0,0,6,0,0,,16,
"2-cf3-4,5-dichlorobenzimidazole",C8H3Cl2F3N2,003615-21-2,C1=CC(=C(C2=C1NC(=N2)C(F)(F)F)Cl)Cl,"hansch,c et al. (1995) ",3.49,8,3,2,0,0,0,3,2,0,0,,15,
methyl 2-acetamidopropanoate,C6H11N1O3,003619-02-1,COC(=O)C(C)NC(C)=O,"hansch,c et al. (1995) ",-0.57,6,11,1,3,0,0,0,0,0,0,,10,
2-methylpropanehydrazide,C4H10N2O1,003619-17-8,CC(C)C(=O)NN,"hansch,c et al. (1995) ",-0.63,4,10,2,1,0,0,0,0,0,0,,7,
4-methylbenzohydrazide,C8H10N2O1,003619-22-5,Cc1ccc(cc1)C(=O)NN,"hansch,c et al. (1995) ",0.72,8,10,2,1,0,0,0,0,0,0,,11,
5-methyldithiol-3-one,C4H4O1S2,003620-08-4,CC1=CC(=O)SS1,"bona,m et al. (1995) ",1.26,4,4,0,1,2,0,0,0,0,0,,7,
4-methyldithiol-3-one,C4H4O1S2,003620-10-8,CC1=CSSC1=O,"bona,m et al. (1995) ",1.33,4,4,0,1,2,0,0,0,0,0,,7,
2-phenyl-1-piperidin-1-ylethanone,C13H17N1O1,003626-62-8,O=C(Cc1ccccc1)N2CCCCC2,"suryanarayana,mvs et al. (1991) ",2.44,13,17,1,1,0,0,0,0,0,0,,15,
"17-acetyl-6,10,13-trimethyl-2,6,7,8,9,12,14,15,16,17-decahydro-1h-cyclopenta[a]phenanthrene-3,11-dione",C22H30O3,003642-85-1,CC1CC2C3CCC(C(C)=O)C3(C)CC(=O)C2C4(C)CCC(=O)C=C14,sangster (1994) ,2.75,22,30,0,3,0,0,0,0,0,0,,25,
n-(4-butylphenyl)acetamide,C12H17N1O1,003663-20-5,CCCCc1ccc(NC(C)=O)cc1,"nakagawa,y et al. (1992) ",3.3,12,17,1,1,0,0,0,0,0,0,,14,
n-(4-ethylphenyl)acetamide,C10H13N1O1,003663-34-1,CCc1ccc(NC(C)=O)cc1,"nakagawa,y et al. (1992) ",2.2,10,13,1,1,0,0,0,0,0,0,,12,
6-bromo-2-(trifluoromethyl)-1h-benzimidazole,C8H4Br1F3N2,003671-60-1,FC(F)(F)c1[nH]c2cc(Br)ccc2n1,"hansch,c et al. (1995) ",3.57,8,4,2,0,0,0,3,0,1,0,,14,
4'-cl salicylanilide,C13H10Cl1N1O2,003679-63-8,Oc1c(C(=O)Nc2ccc(Cl)cc2)cccc1,"terada,h et al. (1988) ",4.5,13,10,1,2,0,0,0,1,0,0,,17,
4'-cl-5-br salicylanilide,C13H9Br1Cl1N1O2,003679-64-9,Brc1ccc(O)c(C(=O)Nc2ccc(Cl)cc2)c1,"terada,h et al. (1988) ",5.02,13,9,1,2,0,0,0,1,1,0,,18,
propyl dodecanoate,C15H30O2,003681-78-5,CCCCCCCCCCCC(=O)OCCC,"krop,hb et al. (1997) ",6.11,15,30,0,2,0,0,0,0,0,0,,17,
2-(2-furyl)-3-(5-no2furyl)acrylamide,C11H8N2O5,003688-53-7,NC(=O)C(=Cc2ccc(N(=O)(=O))o2)c1ccco1,biobyte (1995) ,0.15,11,8,2,5,0,0,0,0,0,0,,18,
"2-ethoxy-n,n-diethylbenzamide",C13H19N1O2,003688-82-2,CCOc1ccccc1C(=O)N(CC)CC,"suryanarayana,mvs et al. (1991) ",2.5,13,19,1,2,0,0,0,0,0,0,,16,
diethoxyphosphinothioyloxy-diethoxy-sulfanylidenephosphorane,C8H20O5P2S2,003689-24-5,CCO[P](=S)(OCC)O[P](=S)(OCC)OCC,"tomlin,c (1994) ",3.99,8,20,0,5,2,2,0,0,0,0,,17,
"3-(5,5-dioxophenothiazin-10-yl)-n,n,2-trimethylpropan-1-amine",C18H22N2O2S1,003689-50-7,CC(CN(C)C)CN1c2ccccc2[S](=O)(=O)c3ccccc13,"hansch,c et al. (1995) ",2.51,18,22,2,2,1,0,0,0,0,0,,23,
n-(2-diethylaminoethyl)benzamide,C13H20N2O1,003690-53-7,CCN(CC)CCNC(=O)c1ccccc1,"hansch,c et al. (1995) ",1.99,13,20,2,1,0,0,0,0,0,0,,16,
"2-propenoic acid, 2-cyano-3-(2-furanyl)-, methyl",C9H7N1O3,003695-86-1,COC(=O)C(=Cc1ccco1)C(#N),"balaz,s et al. (1985) ",1.65,9,7,1,3,0,0,0,0,0,0,,13,