Names,Formula,CAS No,SMILES,Reference,Exp logp,C,H,N,O,S,P,F,Cl,Br,I,,,
tridecan-5-ylbenzene,C19H32,004534-51-4,CCCCCCCCC(CCCC)c1ccccc1,"sherblom,pm et al. (1992) ",8.62,19,32,0,0,0,0,0,0,0,0,,19,
tridecan-4-ylbenzene,C19H32,004534-51-4,CCCCCCCCCC(CCC)c1ccccc1,"sherblom,pm et al. (1992) ",8.62,19,32,0,0,0,0,0,0,0,0,,19,
tridecan-3-ylbenzene,C19H32,004534-52-5,CCCCCCCCCCC(CC)c1ccccc1,"sherblom,pm et al. (1992) ",8.65,19,32,0,0,0,0,0,0,0,0,,19,
tridecan-2-ylbenzene,C19H32,004534-53-6,CCCCCCCCCCCC(C)c1ccccc1,"sherblom,pm et al. (1992) ",8.77,19,32,0,0,0,0,0,0,0,0,,19,
tetradecan-6-ylbenzene,C20H34,004534-57-0,CCCCCCCCC(CCCCC)c1ccccc1,"sherblom,pm et al. (1992) ",9.25,20,34,0,0,0,0,0,0,0,0,,20,
tetradecan-5-ylbenzene,C20H34,004534-57-0,CCCCCCCCCC(CCCC)c1ccccc1,"sherblom,pm et al. (1992) ",9.25,20,34,0,0,0,0,0,0,0,0,,20,
tetradecan-4-ylbenzene,C20H34,004534-57-0,CCCCCCCCCCC(CCC)c1ccccc1,"sherblom,pm et al. (1992) ",9.25,20,34,0,0,0,0,0,0,0,0,,20,
tetradecan-3-ylbenzene,C20H34,004534-58-1,CCCCCCCCCCCC(CC)c1ccccc1,"sherblom,pm et al. (1992) ",9.29,20,34,0,0,0,0,0,0,0,0,,20,
tetradecan-2-ylbenzene,C20H34,004534-59-2,CCCCCCCCCCCCC(C)c1ccccc1,"sherblom,pm et al. (1992) ",9.29,20,34,0,0,0,0,0,0,0,0,,20,
undecan-4-ylbenzene,C17H28,004537-15-9,CCCCCCCC(CCC)c1ccccc1,"sherblom,pm et al. (1992) ",7.45,17,28,0,0,0,0,0,0,0,0,,17,
undecan-3-ylbenzene,C17H28,004536-87-2,CCCCCCCCC(CC)c1ccccc1,"sherblom,pm et al. (1992) ",7.53,17,28,0,0,0,0,0,0,0,0,,17,
undecan-2-ylbenzene,C17H28,004536-88-3,CCCCCCCCCC(C)c1ccccc1,"sherblom,pm et al. (1992) ",7.63,17,28,0,0,0,0,0,0,0,0,,17,
decan-5-ylbenzene,C16H26,004537-12-6,CCCCCC(CCCC)c1ccccc1,"sherblom,pm et al. (1992) ",7,16,26,0,0,0,0,0,0,0,0,,16,
decan-4-ylbenzene,C16H26,004537-12-6,CCCCCCC(CCC)c1ccccc1,"sherblom,pm et al. (1992) ",7,16,26,0,0,0,0,0,0,0,0,,16,
decan-2-ylbenzene,C16H26,004537-13-7,CCCCCCCCC(C)c1ccccc1,"sherblom,pm et al. (1992) ",7.06,16,26,0,0,0,0,0,0,0,0,,16,
undecan-6-ylbenzene,C17H28,004537-15-9,CCCCCC(CCCCC)c1ccccc1,"sherblom,pm et al. (1992) ",7.45,17,28,0,0,0,0,0,0,0,0,,17,
undecan-5-ylbenzene,C17H28,004537-15-9,CCCCCCC(CCCC)c1ccccc1,"sherblom,pm et al. (1992) ",7.45,17,28,0,0,0,0,0,0,0,0,,17,
pyrimidine-2-carbothioamide,C5H5N3S1,004537-73-9,NC(=S)c1ncccn1,"hansch,c & leo,aj (1985) ",-0.34,5,5,3,0,1,0,0,0,0,0,,9,
"n-[9-[3,4-dihydroxy-5-(hydroxymethyl)oxolan-2-yl]purin-6-yl]benzamide",C17H17N5O5,004546-55-8,OCC1OC(C(O)C1O)n2cnc3c(NC(=O)c4ccccc4)ncnc23,"hansch,c et al. (1995) ",-0.1,17,17,5,5,0,0,0,0,0,0,,27,
"5-(2,6-diaminopurin-9-yl)-2-(hydroxymethyl)oxolan-3-ol",C10H14N6O3,004546-70-7,Nc1nc(N)c2ncn(C3CC(O)C(CO)O3)c2n1,"balzarini,jm et al. (1989) ",-0.52,10,14,6,3,0,0,0,0,0,0,,19,
n-[9-[4-hydroxy-5-(hydroxymethyl)oxolan-2-yl]purin-6-yl]benzamide,C17H17N5O4,004546-72-9,OCC1OC(CC1O)n2cnc3c(NC(=O)c4ccccc4)ncnc23,"hansch,c et al. (1995) ",0.22,17,17,5,4,0,0,0,0,0,0,,26,
2-[2-(4-fluorophenyl)-5-nitroimidazol-1-yl]ethanol,C11H10F1N3O3,004548-15-6,OCCn1c(cnc1c2ccc(F)cc2)[N+]([O-])=O,sangster (1994) ,1.33,11,10,3,3,0,0,1,0,0,0,,18,
n-butyl-n-ethylnitrous amide,C6H14N2O1,004549-44-4,CCCCN(CC)N=O,"vera,a et al. (1992) ",1.63,6,14,2,1,0,0,0,0,0,0,,9,
1h-pyrrole-2-carboxamide,C5H6N2O1,004551-72-8,NC(=O)c1[nH]ccc1,"yamagami,c et al. (1994) ",0.09,5,6,2,1,0,0,0,0,0,0,,8,
"4-methyl-3,5-dinitrobenzamide",C8H7N3O5,004551-76-2,Cc1c(cc(cc1[N+]([O-])=O)C(N)=O)[N+]([O-])=O,"hansch,c & leo,aj (1985) ",0.68,8,7,3,5,0,0,0,0,0,0,,16,
phenylmethanesulfonamide,C7H9N1O2S1,004563-33-1,N[S](=O)(=O)Cc1ccccc1,"hansch,c et al. (1995) ",0.13,7,9,1,2,1,0,0,0,0,0,,11,
carbomycin a,C42H67N1O16,004564-87-8,CO[C@H]1[C@@H](CC(=O)O[C@H](C)C[C@@H]2OC2/C=C/C(=O)[C@H](C)C[C@H](CC=O)[C@@H]1OC3OC(C)C(OC4CC(C)(O)C(OC(=O)CC(C)C)C(C)O4)C(C3O)N(C)C)OC(C)=O,"mcfarland,jw et al. (1997) ",3.04,42,67,1,16,0,0,0,0,0,0,,59,
"pentyl 3,4,5-trihydroxybenzoate",C12H16O5,004568-93-8,CCCCCOC(=O)c1cc(O)c(O)c(O)c1,"hansch,c et al. (1995) ",2.67,12,16,0,5,0,0,0,0,0,0,,17,
"1,3-benzoxazol-2-amine",C7H6N2O1,004570-41-6,Nc1oc2ccccc2n1,"hansch,c & leo,aj (1985) ",1.53,7,6,2,1,0,0,0,0,0,0,,10,
"1,3-oxazol-2-amine",C3H4N2O1,004570-45-0,Nc1occn1,"hansch,c & leo,aj (1985) ",-0.18,3,4,2,1,0,0,0,0,0,0,,6,
5-bromopyrimidine,C4H3Br1N2,004595-59-9,Brc1cncnc1,"hansch,c & leo,aj (1985) ",0.72,4,3,2,0,0,0,0,0,1,0,,7,
2-bromopyrimidine,C4H3Br1N2,004595-60-2,Brc1ncccn1,"yamagami,c et al. (1990) ",0.5,4,3,2,0,0,0,0,0,1,0,,7,
n-methyl-2-pyridinamine,C6H8N2,004597-87-9,CNc1ccccn1,"yamagami,c et al. (1990a) ",1.12,6,8,2,0,0,0,0,0,0,0,,8,
5-(4-methoxyphenyl)-5-oxopentanoic acid,C12H14O4,004609-10-3,COc1ccc(cc1)C(=O)CCCC(O)=O,sangster (1994) ,1.63,12,14,0,4,0,0,0,0,0,0,,16,
2-(tert-butylamino)ethanol,C6H15N1O1,004620-70-6,CC(C)(C)NCCO,"hansch,c et al. (1995) ",0.41,6,15,1,1,0,0,0,0,0,0,,8,
decan-3-ylbenzene,C16H26,004621-36-7,CCCCCCCC(CC)c1ccccc1,"sherblom,pm et al. (1992) ",7,16,26,0,0,0,0,0,0,0,0,,16,
3-pyridinecarbothioamide,C6H6N2S1,004621-66-3,NC(=S)c1cccnc1,"hansch,c et al. (1995) ",0.67,6,6,2,0,1,0,0,0,0,0,,9,
5-chlorosalicylanilide,C13H10Cl1N1O2,004638-48-6,Oc1ccc(Cl)cc1C(=O)Nc2ccccc2,"terada,h et al. (1988) ",4.05,13,10,1,2,0,0,0,1,0,0,,17,
"n,n-dimethyl-3,3-di(phenyl)propan-1-amine",C17H21N1,004646-55-3,CN(C)CCC(c1ccccc1)c2ccccc2,biobyte starlist (2009) ,4.31,17,21,1,0,0,0,0,0,0,0,,18,
"1-(4-butylphenyl)-6,6-dimethyl-1,3,5-triazine-2,4-diamine",C15H23N5,004653-73-0,CCCCc1ccc(cc1)N2C(=NC(=NC2(C)C)N)N,sangster (1993) ,2.66,15,23,5,0,0,0,0,0,0,0,,20,
propan-2-yl 2-methylprop-2-enoate,C7H12O2,004655-34-9,CC(C)OC(=O)C(C)=C,"hansch,c & leo,aj (1985) ",2.25,7,12,0,2,0,0,0,0,0,0,,9,
n-phenyl-2-piperidin-1-ylacetamide,C13H18N2O1,004671-97-0,O=C(CN1CCCCC1)Nc2ccccc2,"hansch,c et al. (1995) ",2.71,13,18,2,1,0,0,0,0,0,0,,16,
"grayanotoxane-3,5,6,10,14,16-hexol",C20H34O6,004678-45-9,CC1(O)CC23CC(O)C4(O)C(CC(O)C4(C)C)C(C)(O)C2CCC1C3O,"hansch,c et al. (1995) ",0.27,20,34,0,6,0,0,0,0,0,0,,26,
6-chloropicolinic acid,C6H4Cl1N1O2,004684-94-0,OC(=O)c1cccc(Cl)n1,sangster (1994) ,1.5,6,4,1,2,0,0,0,1,0,0,,10,
"6-[(3-hydroxy-3-oxo-2-phenylpropanoyl)amino]-3,3-dimethyl-7-oxo-4-thia-1-azabicyclo[3.2.0]heptane-2-carboxylic acid",C17H18N2O6S1,004697-36-3,CC1(C)SC2C(NC(=O)C(C(O)=O)c3ccccc3)C(=O)N2C1C(O)=O,"hansch,c et al. (1995) ",1.13,17,18,2,6,1,0,0,0,0,0,,26,
"2h-1,4-benzodiazepin-2-one, 7-chloro-1,3-dihydro",C16H13Cl1N2O1,004699-82-5,Clc1ccc2c(C(c3ccccc3)=NC(C)C(=O)N2)c1,"hansch,c et al. (1995) ",3.33,16,13,2,1,0,0,0,1,0,0,,20,
4-chlorophenyl glucopyranoside,C12H15Cl1O6,004756-30-3,OC[C@H]1OC(Oc2ccc(Cl)cc2)[C@H](O)[C@@H](O)[C@@H]1O,"hansch,c et al. (1995) ",0.26,12,15,0,6,0,0,0,1,0,0,,19,
"1-(1,3-benzodioxol-5-yl)propan-2-amine",C10H13N1O2,051497-09-7,CC(N)Cc1ccc2OCOc2c1,sangster (1994) ,1.64,10,13,1,2,0,0,0,0,0,0,,13,
"3,3-diethyl-2-benzofuran-1-one",C12H14O2,004770-31-4,CCC1(CC)OC(=O)c2ccccc12,"hansch,c & leo,aj (1985) ",2.69,12,14,0,2,0,0,0,0,0,0,,14,
2-chloro-6-chloro-pyrazine,C4H2Cl2N2,004774-14-5,Clc1cncc(Cl)n1,"yamagami,c & takao,n (1991) ",1.53,4,2,2,0,0,0,0,2,0,0,,8,
"pyrazine, 2,6-dimethoxy-",C6H8N2O2,004774-15-6,COc1cncc(OC)n1,"yamagami,c et al. (1991) ",1.58,6,8,2,2,0,0,0,0,0,0,,10,
2-piperazin-1-ylquinoline,C13H15N3,004774-24-7,C1CN(CCN1)c2ccc3ccccc3n2,"caccia,s et al. (1985) ",2.04,13,15,3,0,0,0,0,0,0,0,,16,
"3,3-dimethyl-6-[[2-methyl-2-(phenoxy)propanoyl]amino]-7-oxo-4-thia-1-azabicyclo[3.2.0]heptane-2-carboxylic acid",C18H22N2O5S1,004780-24-9,CC1(C)SC2C(NC(=O)C(C)(C)Oc3ccccc3)C(=O)N2C1C(O)=O,"hansch,c et al. (1995) ",2.76,18,22,2,5,1,0,0,0,0,0,,26,
naphthalen-1-ylmethanol,C11H10O1,004780-79-4,OCc1cccc2ccccc12,sangster (1993) ,2.37,11,10,0,1,0,0,0,0,0,0,,12,
2-(phenoxy)pyridine,C11H9N1O1,004783-68-0,O(c1ccccc1)c2ccccn2,"hansch,c et al. (1995) ",2.39,11,9,1,1,0,0,0,0,0,0,,13,
furosemideethylester,C14H15Cl1N2O5S1,004793-56-0,CCOC(=O)c1c(NCc2occc2)cc(Cl)c(S(=O)(=O)N)c1,biobyte (1995) ,2.67,14,15,2,5,1,0,0,1,0,0,,23,
"phosphoric acid, bis(4-chlorophenyl) ester",C12H9Cl2O4P1,004795-31-7,[O-][P](=O)(Oc1ccc(Cl)cc1)Oc2ccc(Cl)cc2,biobyte (1995) ,2.64,12,9,0,4,0,1,0,2,0,0,,19,
"7-bicyclo[2.2.1]hepta-2,5-dienyl benzoate",C14H12O2,004796-68-3,O=C(OC1C2C=CC1C=C2)c3ccccc3,"leahy,de et al. (1989) ",3.03,14,12,0,2,0,0,0,0,0,0,,16,
diethyl (3-methyl-4-methylsulfanylphenyl) phosphate,C12H19O4P1S1,004799-59-1,CCO[P](=O)(OCC)Oc1ccc(SC)c(C)c1,"hansch,c & leo,aj (1985) ",3.28,12,19,0,4,1,1,0,0,0,0,,18,
2-propan-2-yloxyphenol,C9H12O2,004812-20-8,CC(C)Oc1ccccc1O,"hansch,c et al. (1995) ",2.09,9,12,0,2,0,0,0,0,0,0,,11,
bromophos ethyl,C10H12Br1Cl2O3P1S1,004824-78-6,P(=S)(OCC)(OCC)Oc1c(Cl)cc(Br)c(Cl)c1,"debruijn,j et al. (1989) ",6.15,10,12,0,3,1,1,0,2,1,0,,18,
"3,4,4a,5,6,7,8,8a-octahydro-1h-naphthalen-2-one",C10H16O1,004832-17-1,O=C1CCC2CCCCC2C1,"hansch,c & leo,aj (1985) ",1.97,10,16,0,1,0,0,0,0,0,0,,11,
n-[1-[4-hydroxy-5-(hydroxymethyl)oxolan-2-yl]-2-oxopyrimidin-4-yl]benzamide,C16H17N3O5,004836-13-9,OCC1OC(CC1O)N2C=CC(=NC2=O)NC(=O)c3ccccc3,sangster (1994) ,0.67,16,17,3,5,0,0,0,0,0,0,,24,
1-methoxy-2-methyl-3-nitrobenzene,C8H9N1O3,004837-88-1,COc1cccc(c1C)[N+]([O-])=O,"nakagawa,y et al. (1992) ",2.68,8,9,1,3,0,0,0,0,0,0,,12,
1-hexylpyrrolidin-2-one,C10H19N1O1,004838-65-7,CCCCCCN1CCCC1=O,"sasaki,h et al. (1988) ",2.6,10,19,1,1,0,0,0,0,0,0,,12,
"5-methyl-1,2-oxazole-3-carboxylic acid",C5H5N1O3,004857-42-5,Cc1onc(c1)C(O)=O,"hansch,c & leo,aj (1985) ",0.68,5,5,1,3,0,0,0,0,0,0,,9,
"4-phenyl-3,4-dihydro-1h-quinolin-2-one",C15H13N1O1,004888-33-9,O=C1CC(c2ccccc2)c3ccccc3N1,sangster (1993) ,2.79,15,13,1,1,0,0,0,0,0,0,,17,
4-phenylcyclohexan-1-one,C12H14O1,004894-75-1,O=C1CCC(CC1)c2ccccc2,sangster (1993) ,2.3,12,14,0,1,0,0,0,0,0,0,,13,
5-chloro-1-methyl-4-nitroimidazole,C4H4Cl1N3O2,004897-25-0,Cn1cnc(c1Cl)[N+]([O-])=O,sangster (1994) ,1.06,4,4,3,2,0,0,0,1,0,0,,10,
4-chloro-1-methyl-5-nitroimidazole,C4H4Cl1N3O2,004897-31-8,Cn1cnc(Cl)c1[N+]([O-])=O,"suwinski,j et al. (1985) ",0.69,4,4,3,2,0,0,0,1,0,0,,10,
"2,3,4,5-tetrachlorophenol",C6H2Cl4O1,004901-51-3,Oc1cc(Cl)c(Cl)c(Cl)c1Cl,"hansch,c et al. (1995) ",4.21,6,2,0,1,0,0,0,4,0,0,,11,
"1,5,9-cyclododecatriene",C12H18,004904-61-4,C1CC=CCCC=CCCC=C1,sangster (1993) ,5.5,12,18,0,0,0,0,0,0,0,0,,12,
2-(4-butan-2-ylphenoxy)acetic acid,C12H16O3,004917-89-9,CCC(C)c1ccc(OCC(O)=O)cc1,"hansch,c et al. (1995) ",3.12,12,16,0,3,0,0,0,0,0,0,,15,
2-(4-ethoxyphenyl)acetic acid,C10H12O3,004919-33-9,CCOc1ccc(CC(O)=O)cc1,"hansch,c et al. (1995) ",1.95,10,12,0,3,0,0,0,0,0,0,,13,
"3-cl-5-fl-2-meo-benzamide,n-(2-dietaminoet)",C14H20Cl1F1N2O2,061328-02-7,Clc1cc(F)cc(C(=O)NCCN(CC)CC)c1OC,biobyte starlist (2009) ,3.18,14,20,2,2,0,0,1,1,0,0,,20,
"7-amino-5-phenyl-1,3-dihydro-1,4-benzodiazepin-2-one",C15H13N3O1,004928-02-3,Nc1ccc2NC(=O)CN=C(c3ccccc3)c2c1,"hansch,c & leo,aj (1985) ",1,15,13,3,1,0,0,0,0,0,0,,19,
phenyl n-phenylcarbamate,C13H11N1O2,004930-03-4,O=C(Nc1ccccc1)Oc2ccccc2,"hansch,c et al. (1995) ",3.3,13,11,1,2,0,0,0,0,0,0,,16,
3-phenylsulfonyl-1-propylurea,C10H14N2O3S1,004932-53-0,CCCNC(=O)N[S](=O)(=O)c1ccccc1,"cloux,jl et al. (1988) ",1.44,10,14,2,3,1,0,0,0,0,0,,16,
4-oxochromene-2-carboxylic acid,C10H6O4,004940-39-0,OC(=O)C1=CC(=O)c2ccccc2O1,pomona (1987) ,1.63,10,6,0,4,0,0,0,0,0,0,,14,
inchi=1/c4h3fn2/c5-4-3-6-1-2-7-4/h1-3,C4H3F1N2,004949-13-7,Fc1cnccn1,"yamagami,c et al. (1990a) ",0.29,4,3,2,0,0,0,1,0,0,0,,7,
"1,4-benzodiazpn2-one,1-me-5(ph)7nh2",C16H15N3O1,004959-16-4,O=C1CN=C(c3ccccc3)c2cc(N)ccc2N1C,"hansch,c & leo,aj (1985) ",1.46,16,15,3,1,0,0,0,0,0,0,,20,
7-methoxyquinoline,C10H9N1O1,005263-87-6,COc1ccc2cccnc2c1,"hansch,c et al. (1995) ",2.2,10,9,1,1,0,0,0,0,0,0,,12,
5-nitro-1-benzothiophene,C8H5N1O2S1,004965-26-8,[O-][N+](=O)c1ccc2sccc2c1,"hansch,c et al. (1995) ",2.92,8,5,1,2,1,0,0,0,0,0,,12,
"n-oh-1,4-naphthoquinonemonimine",C10H7N1O2,004965-30-4,ON=C1C=CC(=O)c2ccccc12,"hansch,c & leo,aj (1985) ",2.27,10,7,1,2,0,0,0,0,0,0,,13,
7-bromoquinoline,C9H6Br1N1,005332-25-2,Brc1ccc2cccnc2c1,"hansch,c et al. (1995) ",2.83,9,6,1,0,0,0,0,0,1,0,,11,
"3,4-dimethyl-1,2,5-oxadiazole",C4H6N2O1,004975-21-7,Cc1nonc1C,"calvino,r et al. (1992) ",0.71,4,6,2,1,0,0,0,0,0,0,,7,
"n-(1,3-benzothiazol-2-ylsulfanyl)-n-cyclohexylcyclohexanamine",C19H26N2S2,004979-32-2,C1CCC(CC1)N(Sc2sc3ccccc3n2)C4CCCCC4,chemfate (2005) ,4.8,19,26,2,0,2,0,0,0,0,0,,23,
"[3-prop-2-enoyloxy-2,2-bis(prop-2-enoyloxymethyl)propyl] prop-2-enoate",C17H20O8,004986-89-4,C=CC(=O)OCC(COC(=O)C=C)(COC(=O)C=C)COC(=O)C=C,biobyte starlist (2009) ,2.11,17,20,0,8,0,0,0,0,0,0,,25,
6-mercaptopurine riboside,C10H12N4O4S1,004988-64-1,OCC1OC(C(O)C1O)n2cnc3C(=S)N=CNc23,"hansch,c et al. (1995) ",-0.6,10,12,4,4,1,0,0,0,0,0,,19,
4-(1-hydroxy-2-methylaminoethyl)-2-methoxyphenol,C10H15N1O3,005001-33-2,CNCC(O)c1ccc(O)c(OC)c1,"hansch,c et al. (1995) ",-0.64,10,15,1,3,0,0,0,0,0,0,,14,
(4-acetamidophenyl) 2-acetyloxybenzoate,C17H15N1O5,005003-48-5,CC(=O)Nc1ccc(OC(=O)c2ccccc2OC(C)=O)cc1,"nielsen,nm & bundgaard,h (1989) ",2.15,17,15,1,5,0,0,0,0,0,0,,23,
"urea, n-(3,4-dichlorophenyl)-n'-(2-methylpropyl)",C11H14Cl2N2O1,005006-90-6,Clc1c(Cl)ccc(NC(=O)NCC(C)C)c1,"mitsutake,ki et al. (1986) ",4.48,11,14,2,1,0,0,0,2,0,0,,16,
4-amino-n-(6-methoxy-5-propan-2-yloxypyrimidin-4-yl)benzenesulfonamide,C14H18N4O4S1,005018-16-6,COc1ncnc(N[S](=O)(=O)c2ccc(N)cc2)c1OC(C)C,sangster (1993) ,1.03,14,18,4,4,1,0,0,0,0,0,,23,
4-amino-n-(6-ethoxy-5-methoxypyrimidin-4-yl)benzenesulfonamide,C13H16N4O4S1,005532-46-7,CCOc1ncnc(N[S](=O)(=O)c2ccc(N)cc2)c1OC,"hansch,c et al. (1995) ",1.03,13,16,4,4,1,0,0,0,0,0,,22,
2-phenylquinoxaline,C14H10N2,005021-43-2,c1ccc(cc1)c2cnc3ccccc3n2,sangster (1993) ,3.48,14,10,2,0,0,0,0,0,0,0,,16,
"pyridine, 4-(4-chlorophenyl)-1,2,3,6-tetrahydro-",C12H14Cl1N1,005048-08-8,Clc1ccc(cc1)C2=CCNCC2,"altomare,ca et al. (1992) ",3.32,12,14,1,0,0,0,0,1,0,0,,14,
pyrazin-2-ylamine,C4H5N3,005049-61-6,Nc1cnccn1,"hansch,c & leo,aj (1985) ",-0.07,4,5,3,0,0,0,0,0,0,0,,7,
2-methylpyrimidine,C5H6N2,005053-43-0,Cc1ncccn1,"yamagami,c et al. (1990) ",-0.05,5,6,2,0,0,0,0,0,0,0,,7,
1-(4-nitrophenyl)-2-(propan-2-ylamino)ethanol,C11H16N2O3,007413-36-7,CC(C)NCC(O)c1ccc(cc1)[N+]([O-])=O,"hansch,c et al. (1995) ",1.28,11,16,2,3,0,0,0,0,0,0,,16,
"1,5-dimethylpyrrolidin-2-one",C6H11N1O1,005075-92-3,CC1CCC(=O)N1C,"kim,ck et al. (1993) ",-0.07,6,11,1,1,0,0,0,0,0,0,,8,
2-(3-fluoro-4-phenylphenyl)propanoic acid,C15H13F1O2,005104-49-4,CC(C(O)=O)c1ccc(c(F)c1)c2ccccc2,"hansch,c et al. (1995) ",4.16,15,13,0,2,0,0,1,0,0,0,,18,
124-benzthiadiazin-11so2-3me5br7cl,C8H6Br1Cl1N2O2S1,005108-54-3,CC1NS(=O)(=O)c2c(c(Br)cc(Cl)c2)N=1,"hansch,c & leo,aj (1985) ",1.65,8,6,2,2,1,0,0,1,1,0,,15,
3-nitro-n-phenyl-4-(phenylamino)benzenesulfonamide,C18H15N3O4S1,005124-25-4,[O-][N+](=O)c1cc(ccc1Nc2ccccc2)[S](=O)(=O)Nc3ccccc3,"baughman,gl & weber,ej (1991) ",4.6,18,15,3,4,1,0,0,0,0,0,,26,
"2-diethoxyphosphinothioylisoindole-1,3-dione",C12H14N1O4P1S1,005131-24-8,CCO[P](=S)(OCC)N1C(=O)c2ccccc2C1=O,"hansch,c et al. (1995) ",3.48,12,14,1,4,1,1,0,0,0,0,,19,
"1,3-benzenediamine, 4-chloro-",C6H7Cl1N2,005131-60-2,Nc1ccc(Cl)c(N)c1,"bronaugh,rl & congdon,er (1984) ",0.85,6,7,2,0,0,0,0,1,0,0,,9,
cinnolin-4-amine,C8H7N3,005152-83-0,Nc1cnnc2ccccc12,"hansch,c et al. (1995) ",1.04,8,7,3,0,0,0,0,0,0,0,,11,
4-bromobut-1-ene,C4H7Br1,005162-44-7,BrCCC=C,"hansch,c et al. (1995) ",2.53,4,7,0,0,0,0,0,0,1,0,,5,
quinoxaline-2-carboxamide,C9H7N3O1,005182-90-1,NC(=O)c1cnc2ccccc2n1,"hansch,c et al. (1995) ",0.98,9,7,3,1,0,0,0,0,0,0,,13,
n-methylbenzenesulfonamide,C7H9N1O2S1,005183-78-8,CN[S](=O)(=O)c1ccccc1,"hansch,c et al. (1995) ",0.92,7,9,1,2,1,0,0,0,0,0,,11,
1h-indol-5-amine,C8H8N2,005192-03-0,Nc1ccc2[nH]ccc2c1,"hansch,c et al. (1995) ",0.7,8,8,2,0,0,0,0,0,0,0,,10,
"2,4-hexadiene (trans,trans)",C6H10,005194-51-4,C/C=C/C=C/C,"hansch,c et al. (1995) ",3.01,6,10,0,0,0,0,0,0,0,0,,6,
2-amino-5-chloro-methylbenzoate,C8H8Cl1N1O2,005202-89-1,Cc1cc(Cl)cc(c1N)C([O-])=O,"hansch,c et al. (1995) ",3.3,8,8,1,2,0,0,0,1,0,0,,12,
n-(2-fluorophenyl)-2-phenylacetamide,C14H12F1N1O1,005215-26-9,Fc1ccccc1NC(=O)Cc2ccccc2,"yamagami,c et al. (1984) ",2.62,14,12,1,1,0,0,1,0,0,0,,17,
n-(3-fluorophenyl)-2-phenylacetamide,C14H12F1N1O1,005215-27-0,Fc1cccc(NC(=O)Cc2ccccc2)c1,"yamagami,c et al. (1984) ",3.1,14,12,1,1,0,0,1,0,0,0,,17,
n-(4-fluorophenyl)-2-phenylacetamide,C14H12F1N1O1,005215-28-1,Fc1ccc(NC(=O)Cc2ccccc2)cc1,"yamagami,c et al. (1984) ",2.86,14,12,1,1,0,0,1,0,0,0,,17,
n-pyridin-4-ylacetamide,C7H8N2O1,005221-42-1,CC(=O)Nc1ccncc1,"hansch,c et al. (1995) ",0.5,7,8,2,1,0,0,0,0,0,0,,10,
n-pyridin-2-ylacetamide,C7H8N2O1,005231-96-9,CC(=O)Nc1ccccn1,"hansch,c et al. (1995) ",0.61,7,8,2,1,0,0,0,0,0,0,,10,
n-(2-acetylphenyl)acetamide,C10H11N1O2,005234-26-4,CC(=O)Nc1ccccc1C(C)=O,"hansch,c & leo,aj (1985) ",1.5,10,11,1,2,0,0,0,0,0,0,,13,
"2-methyl-n-phenyl-5,6-dihydro-1,4-oxathiine-3-carboxamide",C12H13N1O2S1,005234-68-4,CC1=C(SCCO1)C(=O)Nc2ccccc2,"hansch,c et al. (1995) ",2.14,12,13,1,2,1,0,0,0,0,0,,16,
6-bicyclo[2.2.1]heptanylmethanol,C8H14O1,005240-72-2,OCC1CC2CCC1C2,"lodge,kb (1999) ",1.99,8,14,0,1,0,0,0,0,0,0,,9,
floxacillin,C19H17Cl1F1N3O5S1,005250-39-5,Cc1onc(c1C(=O)N[C@H]2[C@H]3SC(C)(C)[C@@H](N3C2=O)C(O)=O)c4c(F)cccc4Cl,sangster (1994) ,2.58,19,17,3,5,1,0,1,1,0,0,,30,
2-(benzoylamino)oxyacetic acid,C9H9N1O4,005251-93-4,OC(=O)CONC(=O)c1ccccc1,"hansch,c et al. (1995) ",-0.27,9,9,1,4,0,0,0,0,0,0,,14,
methyl 2-[(4-aminobenzoyl)amino]acetate,C10H12N2O3,005259-86-9,COC(=O)CNC(=O)c1ccc(N)cc1,"hansch,c et al. (1995) ",-0.23,10,12,2,3,0,0,0,0,0,0,,15,
"2-methyl-4,4-dioxo-n-phenyl-5,6-dihydro-1,4-oxathiine-3-carboxamide",C12H13N1O4S1,005259-88-1,CC1=C(C(=O)Nc2ccccc2)[S](=O)(=O)CCO1,"tomlin,c (2003) ",0.77,12,13,1,4,1,0,0,0,0,0,,18,
6-methoxyquinoline,C10H9N1O1,005263-87-6,COc1ccc2ncccc2c1,"hansch,c et al. (1995) ",2.2,10,9,1,1,0,0,0,0,0,0,,12,
4-pyridin-4-ylbutan-1-ol,C9H13N1O1,005264-15-3,OCCCCc1ccncc1,"hansch,c et al. (1995) ",0.9,9,13,1,1,0,0,0,0,0,0,,11,
"4,6-dimethoxypyrimidine",C6H8N2O2,005270-94-0,COc1cc(OC)ncn1,"wei,l et al. (1999) ",0.96,6,8,2,2,0,0,0,0,0,0,,10,
"2-cyclohexyloxy-6-(hydroxymethyl)oxane-3,4,5-triol",C12H22O6,005284-99-1,OCC1OC(OC2CCCCC2)C(O)C(O)C1O,"hansch,c & leo,aj (1985) ",-0.63,12,22,0,6,0,0,0,0,0,0,,18,
thiocyanatobenzene,C7H5N1S1,005285-87-0,N#CSc1ccccc1,"hansch,c & leo,aj (1985) ",2.54,7,5,1,0,1,0,0,0,0,0,,9,
1-(phenylmethyl)pyrrolidin-2-one,C11H13N1O1,005291-77-0,O=C1CCCN1Cc2ccccc2,"hansch,c & leo,aj (1985) ",1.25,11,13,1,1,0,0,0,0,0,0,,13,
diethyl 2-(phenylmethylidene)propanedioate,C14H16O4,005292-53-5,CCOC(=O)C(=Cc1ccccc1)C(=O)OCC,"hansch,c & leo,aj (1985) ",3.13,14,16,0,4,0,0,0,0,0,0,,18,
prop-2-enylsulfanylbenzene,C9H10S1,005296-64-0,C=CCSc1ccccc1,"hansch,c et al. (1995) ",3.51,9,10,0,0,1,0,0,0,0,0,,10,
"2-phenyl-1,2-oxazolidine-3,5-dione",C9H7N1O3,005305-00-0,O=C1CC(=O)N(O1)c2ccccc2,"lipinski,ca et al. (1991) ",0.54,9,7,1,3,0,0,0,0,0,0,,13,
"2-nitrobenzene-1,4-diamine",C6H7N3O2,005307-14-2,Nc1ccc(N)c(c1)[N+]([O-])=O,"bronaugh,rl & congdon,er (1984) ",0.53,6,7,3,2,0,0,0,0,0,0,,11,
3-hydroxyquinazolin-4-one,C8H6N2O2,005319-71-1,ON1C=Nc2ccccc2C1=O,"hansch,c & leo,aj (1985) ",-0.45,8,6,2,2,0,0,0,0,0,0,,12,
2-amino-5-iodobenzoic acid,C7H6I1N1O2,005326-47-6,Nc1ccc(I)cc1C(O)=O,"hansch,c & leo,aj (1985) ",2.06,7,6,1,2,0,0,0,0,0,1,,11,
2-bromo-n-ethylacetamide,C4H8Br1N1O1,005327-00-4,CCNC(=O)CBr,"hansch,c et al. (1995) ",0.34,4,8,1,1,0,0,0,0,1,0,,7,
"benzenemethanol, 5-chloro-2-hydroxy-",C7H7Cl1O2,005330-38-1,OCc1cc(Cl)ccc1O,sangster (1993) ,1.44,7,7,0,2,0,0,0,1,0,0,,10,
3-bromoquinoline,C9H6Br1N1,005332-24-1,Brc1cnc2ccccc2c1,"hansch,c et al. (1995) ",3.03,9,6,1,0,0,0,0,0,1,0,,11,
6-bromoquinoline,C9H6Br1N1,005332-25-2,Brc1ccc2ncccc2c1,"hansch,c et al. (1995) ",2.83,9,6,1,0,0,0,0,0,1,0,,11,
4-butylpyridine,C9H13N1,005335-75-1,CCCCc1ccncc1,sangster (1993) ,3.13,9,13,1,0,0,0,0,0,0,0,,10,
1-(2-bromoethyl)-4-nitrobenzene,C8H8Br1N1O2,not,[O-][N+](=O)c1ccc(CCBr)cc1,biobyte (1995) ,2.9,8,8,1,2,0,0,0,0,1,0,,12,
2-pyridin-4-ylethanol,C7H9N1O1,005344-27-4,OCCc1ccncc1,"hansch,c et al. (1995) ",0.1,7,9,1,1,0,0,0,0,0,0,,9,
"benzoic acid, 2-chloro-6-nitro-",C7H4Cl1N1O4,005344-49-0,OC(=O)c1c(Cl)cccc1[N+]([O-])=O,"sotomatsu,t et al. (1993) ",1.56,7,4,1,4,0,0,0,1,0,0,,13,