Names,Formula,CAS No,SMILES,Reference,Exp logp,C,H,N,O,S,P,F,Cl,Br,I,,,
3-iodopyridine,C5H4I1N1,001120-90-7,Ic1cccnc1,"hansch,c et al. (1995) ",1.8,5,4,1,0,0,0,0,0,0,1,,7,
"pyridazine, 3-chloro-",C4H3Cl1N2,001120-95-2,Clc1cccnn1,"yamagami,c et al. (1990) ",0.1,4,3,2,0,0,0,0,1,0,0,,7,
"1-methylpyrrolidine-2,5-quinone",C5H7N1O2,001121-07-9,CN1C(=O)CCC1=O,"hansch,c et al. (1995) ",-0.95,5,7,1,2,0,0,0,0,0,0,,8,
pyridine-2-carbaldehyde,C6H5N1O1,001121-60-4,O=Cc1ccccn1,"hansch,c et al. (1995) ",0.44,6,5,1,1,0,0,0,0,0,0,,8,
1-pyridin-4-ylethanone,C7H7N1O1,001122-54-9,CC(=O)c1ccncc1,"hansch,c et al. (1995) ",0.48,7,7,1,1,0,0,0,0,0,0,,9,
"n,n-dimethylpyridin-4-amine",C7H10N2,001122-58-3,CN(C)c1ccncc1,"hansch,c et al. (1995) ",1.34,7,10,2,0,0,0,0,0,0,0,,9,
1-(2-pyridyl)ethanone,C7H7N1O1,001122-62-9,CC(=O)c1ccccn1,"hansch,c et al. (1995) ",0.85,7,7,1,1,0,0,0,0,0,0,,9,
4-propylpyridine,C8H11N1,001122-81-2,CCCc1ccncc1,"hansch,c et al. (1995) ",2.1,8,11,1,0,0,0,0,0,0,0,,9,
8-azaadenine,C4H4N6,001123-54-2,Nc1ncnc2nn[nH]c12,"hansch,c et al. (1995) ",-0.96,4,4,6,0,0,0,0,0,0,0,,10,
"2,3,5,6-tetramethylpyrazine",C8H12N2,001124-11-4,Cc1nc(C)c(C)nc1C,"yamagami,c et al. (1991) ",1.28,8,12,2,0,0,0,0,0,0,0,,10,
"5,6,7,8-tetrahydronaphthalen-2-ol",C10H12O1,001125-78-6,Oc1ccc2CCCCc2c1,sangster (1993) ,2.9,10,12,0,1,0,0,0,0,0,0,,11,
3-methylisoquinoline,C10H9N1,001125-80-0,Cc1cc2ccccc2cn1,"hansch,c et al. (1995) ",2.68,10,9,1,0,0,0,0,0,0,0,,11,
1-phenylpyrazole,C9H8N2,001126-00-7,c1ccc(cc1)n2cccn2,"hansch,c et al. (1995) ",2.2,9,8,2,0,0,0,0,0,0,0,,11,
methyl p-chlorobenzoate,C8H7Cl1O2,001126-46-1,COC(=O)c1ccc(Cl)cc1,"pagou,m & koutselinis,a (1993) ",2.87,8,7,0,2,0,0,0,1,0,0,,11,
"n,n-dimethyl-2-phenylethanamine",C10H15N1,001126-71-2,CN(C)CCc1ccccc1,biobyte starlist (2009) ,2.38,10,15,1,0,0,0,0,0,0,0,,11,
n-butylaniline,C10H15N1,001126-78-9,CCCCNc1ccccc1,"hansch,c et al. (1995) ",3.58,10,15,1,0,0,0,0,0,0,0,,11,
1-ethylnaphthalene,C12H12,001127-76-0,CCc1cccc2ccccc12,sangster (1993) ,4.4,12,12,0,0,0,0,0,0,0,0,,12,
1-(1-benzothiophen-3-yl)ethanone,C10H8O1S1,001128-05-8,CC(=O)c1csc2ccccc12,"hansch,c et al. (1995) ",2.78,10,8,0,1,1,0,0,0,0,0,,12,
(2-methylphenyl) n-methylcarbamate,C9H11N1O2,001128-78-5,CNC(=O)Oc1ccccc1C,"hansch,c et al. (1995) ",1.46,9,11,1,2,0,0,0,0,0,0,,12,
4-methoxybenzenesulfonamide,C7H9N1O3S1,001129-26-6,COc1ccc(cc1)[S](N)(=O)=O,"hansch,c et al. (1995) ",0.47,7,9,1,3,1,0,0,0,0,0,,12,
(4-methylphenyl) n-methylcarbamate,C9H11N1O2,001129-48-2,CNC(=O)Oc1ccc(C)cc1,"hansch,c et al. (1995) ",1.66,9,11,1,2,0,0,0,0,0,0,,12,
n-phenylbutanamide,C10H13N1O1,001129-50-6,CCCC(=O)Nc1ccccc1,"hansch,c et al. (1995) ",2.05,10,13,1,1,0,0,0,0,0,0,,12,
4-cyclohexylphenol,C12H16O1,001131-60-8,Oc1ccc(cc1)C2CCCCC2,"hansch,c et al. (1995) ",4.22,12,16,0,1,0,0,0,0,0,0,,13,
1-oxido-4-phenylpyridin-1-ium,C11H9N1O1,not,[O-][n+]1ccc(cc1)c2ccccc2,daylight (1999) ,0.93,11,9,1,1,0,0,0,0,0,0,,13,
"3,4-dihydro-1h-isoquinoline-2-carboximidamide",C10H13N3,001131-64-2,NC(=N)N1CCc2ccccc2C1,sangster (1994) ,0.75,10,13,3,0,0,0,0,0,0,0,,13,
4-propylbenzenesulfonamide,C9H13N1O2S1,001132-18-9,CCCc1ccc(cc1)[S](N)(=O)=O,"hansch,c et al. (1995) ",1.64,9,13,1,2,1,0,0,0,0,0,,13,
"3,5-dimethoxybenzoic acid",C9H10O4,001132-21-4,COc1cc(OC)cc(c1)C(O)=O,"hansch,c et al. (1995) ",2.19,9,10,0,4,0,0,0,0,0,0,,13,
s-ethyl (cyclohexyl-ethylamino)methanethioate,C11H21N1O1S1,001134-23-2,CCSC(=O)N(CC)C1CCCCC1,"tomlin,c (2003) ",3.88,11,21,1,1,1,0,0,0,0,0,,14,
"benzenepropanoic acid, ß-(aminomethyl)-4-chloro-",C10H12Cl1N1O2,001134-47-0,NCC(CC(O)=O)c1ccc(Cl)cc1,pomona (1987) ,-0.96,10,12,1,2,0,0,0,1,0,0,,14,
2-but-3-en-1-ynyl-5-thiophen-2-ylthiophene,C12H8S2,001134-61-8,C=CC#Cc1sc(cc1)c2sccc2,"mclachlan,d et al. (1986) ",5.15,12,8,0,0,2,0,0,0,0,0,,14,
"3-(phenylmethyl)pentane-2,4-dione",C12H14O2,001134-87-8,CC(=O)C(Cc1ccccc1)C(C)=O,"hansch,c et al. (1995) ",1.89,12,14,0,2,0,0,0,0,0,0,,14,
1135-00-8,C10H15N1O2S1,001135-00-8,CCCCc1ccc(cc1)[S](N)(=O)=O,"hansch,c et al. (1995) ",2.45,10,15,1,2,1,0,0,0,0,0,,14,
"cinnamic acid, 3-methoxy-4-hydroxy",C10H10O4,001135-24-6,COc1cc(C=CC(=O)(O))ccc1O,"hansch,c et al. (1995) ",1.51,10,10,0,4,0,0,0,0,0,0,,14,
(4-acetylphenyl) n-methylcarbamate,C10H11N1O3,001135-43-9,CNC(=O)Oc1ccc(cc1)C(C)=O,"hansch,c et al. (1995) ",1.01,10,11,1,3,0,0,0,0,0,0,,14,
[3-(carbamoylamino)phenyl]urea,C8H10N4O2,001135-58-6,NC(=O)Nc1cccc(NC(N)=O)c1,pomona (1987) ,0.58,8,10,4,2,0,0,0,0,0,0,,14,
(4-hydroxyphenyl)-phenylmethanone,C13H10O2,001137-42-4,Oc1ccc(cc1)C(=O)c2ccccc2,"hansch,c et al. (1995) ",3.07,13,10,0,2,0,0,0,0,0,0,,15,
"n,1-di(phenyl)methanimine oxide",C13H11N1O1,001137-96-8,[O-][N+](=Cc1ccccc1)c2ccccc2,"kirchner,jj et al. (1985) ",1.88,13,11,1,1,0,0,0,0,0,0,,15,
"3,5-ditert-butylphenol",C14H22O1,001138-52-9,CC(C)(C)c1cc(O)cc(c1)C(C)(C)C,biobyte starlist (2009) ,4.64,14,22,0,1,0,0,0,0,0,0,,15,
4-butoxybenzenesulfonamide,C10H15N1O3S1,001138-58-5,CCCCOc1ccc(cc1)[S](N)(=O)=O,"carotti,a et al. (1989) ",2.05,10,15,1,3,1,0,0,0,0,0,,15,
"propan-2-yl 3,4,5-trihydroxybenzoate",C10H12O5,001138-60-9,CC(C)OC(=O)c1cc(O)c(O)c(O)c1,"hansch,c et al. (1995) ",1.54,10,12,0,5,0,0,0,0,0,0,,15,
2-(2-aminophenyl)disulfanylaniline,C12H12N2S2,001141-88-4,Nc1ccccc1SSNc2ccccc2,"hansch,c et al. (1995) ",3.05,12,12,2,0,2,0,0,0,0,0,,16,
"5-(2-bromoprop-2-enyl)-5-butan-2-yl-1,3-diazinane-2,4,6-trione",C11H15Br1N2O3,001142-70-7,CCC(C)C1(CC(Br)=C)C(=O)NC(=O)NC1=O,"yih,td & van rossum,jm (1977) ",2.2,11,15,2,3,0,0,0,0,1,0,,17,
ethyl 3-(benzotriazol-1-yl)butanoate,C12H15N3O2,001143-78-8,CCOC(=O)CC(C)n1nnc2ccccc12,"sparatore,f et al. (1988) ",2.27,12,15,3,2,0,0,0,0,0,0,,17,
"benzenesulfonamide, 4-(hexyloxy)-",C12H19N1O3S1,001145-46-6,CCCCCCOc1ccc(cc1)[S](N)(=O)=O,"hansch,c et al. (1995) ",2.93,12,19,1,3,1,0,0,0,0,0,,17,
"2-(4-bromophenyl)indene-1,3-dione",C15H9Br1O2,001146-98-1,Brc1ccc(cc1)C2C(=O)c3ccccc3C2=O,sangster (1993) ,3.76,15,9,0,2,0,0,0,0,1,0,,18,
"1h-indene-1,3(2h)-dione, 2-(4-chlorophenyl)-",C15H9Cl1O2,001146-99-2,Clc1ccc(cc1)C2C(=O)c3ccccc3C2=O,sangster (1993) ,3.61,15,9,0,2,0,0,0,1,0,0,,18,
"2,6-di(pyridin-2-yl)pyridine",C15H11N3,001148-79-4,c1ccc(nc1)c2cccc(n2)c3ccccn3,"de voogt,p et al. (1990) ",1.96,15,11,3,0,0,0,0,0,0,0,,18,
"3,5,4'-tricl salicylanilide",C13H8Cl3N1O2,001151-51-5,Clc1cc(Cl)cc(C(=O)Nc2ccc(Cl)cc2)c1O,"terada,h et al. (1988) ",5.15,13,8,1,2,0,0,0,3,0,0,,19,
"3-butyn-1-ol, 2-chloro-4[5-(1,3-pentadiynyl)-2-",C15H11Cl1O2S1,001152-72-3,ClC(C#Cc1ccc(C#CC#CC)s1)COC(=O)(C),"mclachlan,d et al. (1986) ",4.6,15,11,0,2,1,0,0,1,0,0,,19,
1-(azepan-1-yl)-3-(4-methylphenyl)sulfonylurea,C14H21N3O3S1,001156-19-0,Cc1ccc(cc1)[S](=O)(=O)NC(=O)NN2CCCCCC2,sangster (1993) ,2.69,14,21,3,3,1,0,0,0,0,0,,21,
clobenzepam,C17H18Cl1N3O1,001159-93-9,CN(C)CCN1C(=O)c2ccccc2Nc3cc(Cl)ccc13,sangster (1994) ,3.73,17,18,3,1,0,0,0,1,0,0,,22,
peruvoside,C30H44O9,001182-87-2,COC1[C@H](O)C(C)O[C@H](O[C@H]2CC[C@@]3(C=O)[C@H](CCC4C3CC[C@]5(C)[C@H](CC[C@]45O)C6=CC(=O)OC6)C2)C1O,"hansch,c et al. (1995) ",1.05,30,44,0,9,0,0,0,0,0,0,,39,
oo-dime dichlorovinylphosphonate,C4H7Cl2O3P1,001185-97-3,COP(=O)(OC)C=C(Cl)Cl,"hansch,c et al. (1995) ",1.4,4,7,0,3,0,1,0,2,0,0,,10,
3-(2-methylprop-2-enoyloxy)propyl 2-methylprop-2-enoate,C11H16O4,001188-09-6,CC(=C)C(=O)OCCCOC(=O)C(C)=C,sangster (1993) ,1.86,11,16,0,4,0,0,0,0,0,0,,15,
1-furan-2-ylethanone,C6H6O2,001192-62-7,CC(=O)c1occc1,"hansch,c et al. (1995) ",0.52,6,6,0,2,0,0,0,0,0,0,,8,
4-aminobenzenethiol,C6H7N1S1,001193-02-8,Nc1ccc(S)cc1,"hansch,c et al. (1995) ",1.31,6,7,1,0,1,0,0,0,0,0,,8,
methyl 1h-pyrrole-2-carboxylate,C6H7N1O2,001193-62-0,COC(=O)c1[nH]ccc1,"hansch,c et al. (1995) ",1.17,6,7,1,2,0,0,0,0,0,0,,9,
methylsulfinylbenzene,C7H8O1S1,001193-82-4,C[S](=O)c1ccccc1,"hansch,c et al. (1995) ",0.55,7,8,0,1,1,0,0,0,0,0,,9,
"2,6-dichlorobenzonitrile",C7H3Cl2N1,001194-65-6,Clc1cccc(Cl)c1C#N,"hansch,c et al. (1995) ",2.74,7,3,1,0,0,0,0,2,0,0,,10,
"2,5-dihydroxybenzaldehyde",C7H6O3,001194-98-5,Oc1ccc(O)c(C=O)c1,"jin,lj et al. (1998) ",0.54,7,6,0,3,0,0,0,0,0,0,,10,
2-methyl-1-benzothiophene,C9H8S1,001195-14-8,Cc1sc2ccccc2c1,"andersson,jt & schrader,w (1999) ",3.71,9,8,0,0,1,0,0,0,0,0,,10,
n-(2-oxothiolan-3-yl)acetamide,C6H9N1O2S1,001195-16-0,CC(=O)NC1CCSC1=O,pomona (1987) ,-0.35,6,9,1,2,1,0,0,0,0,0,,10,
"2,7,7-trimethylbicyclo[3.1.1]hept-2-en-4-one",C10H14O1,001196-01-6,CC1=CC(=O)C2CC1C2(C)C,"griffin,s et al. (1999) ",2.23,10,14,0,1,0,0,0,0,0,0,,11,
4-dimethylaminobenzonitrile,C9H10N2,001197-19-9,CN(C)c1ccc(cc1)C#N,"hansch,c et al. (1995) ",2.2,9,10,2,0,0,0,0,0,0,0,,11,
n-phenylmethanesulfonamide,C7H9N1O2S1,001197-22-4,C[S](=O)(=O)Nc1ccccc1,"hansch,c et al. (1995) ",0.95,7,9,1,2,1,0,0,0,0,0,,11,
w-phenylpropionaldehyde oxime,C9H11N1O1,001197-50-8,ON=CCCc1ccccc1,"hansch,c et al. (1995) ",1.56,9,11,1,1,0,0,0,0,0,0,,11,
"tetrachloro-1,2-benzenediol",C6H2Cl4O2,001198-55-6,Oc1c(O)c(Cl)c(Cl)c(Cl)c1Cl,"hansch,c et al. (1995) ",4.29,6,2,0,2,0,0,0,4,0,0,,12,
alpha-methylcinnamic acid,C10H10O2,001199-77-5,CC(=Cc1ccccc1)C(O)=O,sangster (1993) ,2.6,10,10,0,2,0,0,0,0,0,0,,12,
4-phenylbutanamide,C10H13N1O1,001199-98-0,NC(=O)CCCc1ccccc1,"hansch,c et al. (1995) ",1.41,10,13,1,1,0,0,0,0,0,0,,12,
"n,n-dimethyl-3-phenylpropan-1-amine",C11H17N1,001199-99-1,CN(C)CCCc1ccccc1,"hansch,c et al. (1995) ",2.73,11,17,1,0,0,0,0,0,0,0,,12,
(4-methoxyphenyl) acetate,C9H10O3,001200-06-2,COc1ccc(OC(C)=O)cc1,"hansch,c et al. (1995) ",1.54,9,10,0,3,0,0,0,0,0,0,,12,
2-dimethylamino-1-phenylpropan-1-ol,C11H17N1O1,001201-56-5,CC(C(O)c1ccccc1)N(C)C,sangster (1994) ,1.7,11,17,1,1,0,0,0,0,0,0,,13,
methyl 1h-indole-2-carboxylate,C10H9N1O2,001202-04-6,COC(=O)c1[nH]c2ccccc2c1,"yamagami,c et al. (1992) ",2.45,10,9,1,2,0,0,0,0,0,0,,13,
b-ethyl-b-nitrostyrene,C10H11N1O2,001202-32-0,CCC(=Cc1ccccc1)N(=O)(=O),"hansch,c et al. (1995) ",2.86,10,11,1,2,0,0,0,0,0,0,,13,
"n,n-dimethyl-4-phenylbutan-1-amine",C12H19N1,001202-55-7,CN(C)CCCCc1ccccc1,biobyte starlist (2009) ,3.15,12,19,1,0,0,0,0,0,0,0,,13,
methyl 2-(benzoylamino)acetate,C10H11N1O3,001205-08-9,COC(=O)CNC(=O)c1ccccc1,"hansch,c et al. (1995) ",0.82,10,11,1,3,0,0,0,0,0,0,,14,
ethyl azulene-1-carboxylate,C13H12O2,001206-88-8,CCOC(=O)c1ccc2cccccc12,"hansch,c & leo,aj (1985) ",3.83,13,12,0,2,0,0,0,0,0,0,,15,
124-benzthiadiz-1-o2-3-et-7-cl,C9H9Cl1N2O2S1,001207-63-2,CCC1NS(=O)(=O)c2c(ccc(Cl)c2)N=1,"hansch,c et al. (1995) ",1.62,9,9,2,2,1,0,0,1,0,0,,15,
n-ethyl-6-phenylbicyclo[2.2.1]heptan-5-amine,C15H21N1,001209-98-9,CCNC1C2CCC(C2)C1c3ccccc3,sangster (1994) ,3.2,15,21,1,0,0,0,0,0,0,0,,16,
"1,3-dicyclohexylthiourea",C13H24N2S1,001212-29-9,S=C(NC1CCCCC1)NC2CCCCC2,chemicals inspection and testing institu (1992) ,3.69,13,24,2,0,1,0,0,0,0,0,,16,
4-amino-n-(6-methoxypyrimidin-4-yl)benzenesulfonamide,C11H12N4O3S1,001220-83-3,COc1cc(N[S](=O)(=O)c2ccc(N)cc2)ncn1,sangster (1994) ,0.7,11,12,4,3,1,0,0,0,0,0,,19,
"4,6,6,7,8,8-hexamethyl-1,3,4,7-tetrahydrocyclopenta[g]isochromene",C18H26O1,001222-05-5,CC1COCc2cc3c(cc12)C(C)(C)C(C)C3(C)C,us epa (2004) ,5.9,18,26,0,1,0,0,0,0,0,0,,19,
"10h-phenothiazine-10-propanamine, 2-chloro-n-met",C16H17Cl1N2S1,001225-64-5,Clc1ccc2c(N(CCCNC)c3ccccc3S2)c1,sangster (1993) ,4.94,16,17,2,0,1,0,0,1,0,0,,20,
azepinamide,C13H18Cl1N3O3S1,001228-19-9,NC(=O)C1=CC=CC=CN1,"hansch,c et al. (1995) ",1.64,13,18,3,3,1,0,0,1,0,0,,21,
2-ethylhexyl diphenyl phosphate,C20H27O4P1,001241-94-7,CCCCC(CC)CO[P](=O)(Oc1ccccc1)Oc2ccccc2,"hansch,c et al. (1995) ",5.73,20,27,0,4,0,1,0,0,0,0,,25,
"2-methyl-3,4-dinitrophenol",C7H6N2O5,001335-85-9,Cc1c(O)ccc(c1[N+]([O-])=O)[N+]([O-])=O,"halfon,e & bruggemann,r (1989) ",2.86,7,6,2,5,0,0,0,0,0,0,,14,
glycyrrhizic acid,C42H63O16,001405-86-3,CC1(C)[C@H](CC[C@@]2(C)[C@H]1CC[C@]3(C)[C@@H]2C(=O)C=C4[C@@H]5C[C@](C)(CC[C@]5(C)CC[C@@]34C)C(O)=O)O[C@H]6O[C@@H]([C@@H](O)[C@H](O)[C@H]6O[C@@H]7O[C@@H]([C@@H](O)[C@H](O)[C@H]7O)C(O)=O)C(O)=O,sangster (1993) ,2.8,42,63,0,16,0,0,0,0,0,0,,58,
5-dimethylaminonaphthalene-1-sulfonamide,C12H14N2O2S1,001431-39-6,CN(C)c1cccc2c1cccc2[S](N)(=O)=O,"hansch,c et al. (1995) ",2.01,12,14,2,2,1,0,0,0,0,0,,17,
2-butyloxirane,C6H12O1,001436-34-6,CCCCC1CO1,"deneer,jw et al. (1988) ",1.95,6,12,0,1,0,0,0,0,0,0,,7,
quinoline-2-carbonitrile,C10H6N2,001436-43-7,N#Cc1ccc2ccccc2n1,"hansch,c et al. (1995) ",1.6,10,6,2,0,0,0,0,0,0,0,,12,
"1,2-(di-(a-pyridyl)ethylene",C12H10N2,001437-15-6,c1ccc(\C=C\c2ccccn2)nc1,"hansch,c et al. (1995) ",2.11,12,10,2,0,0,0,0,0,0,0,,14,
"morpholine, 4-(chloroacetyl)-",C6H10Cl1N1O2,001440-61-5,ClCC(=O)N1CCOCC1,"barratt,md (1995) ",-0.6,6,10,1,2,0,0,0,1,0,0,,10,
"n,n-dimethyl-4-pyridin-3-ylbutan-1-amine",C11H18N2,001441-44-7,CN(C)CCCCc1cccnc1,"hansch,c et al. (1995) ",1.49,11,18,2,0,0,0,0,0,0,0,,13,
4-acetylbenzonitrile,C9H7N1O1,001443-80-7,CC(=O)c1ccc(cc1)C#N,"hansch,c et al. (1995) ",1.22,9,7,1,1,0,0,0,0,0,0,,11,
3-(4-methylphenyl)sulfonyl-1-piperidin-1-ylurea,C13H19N3O3S1,001443-94-3,Cc1ccc(cc1)[S](=O)(=O)NC(=O)NN2CCCCC2,sangster (1993) ,1.34,13,19,3,3,1,0,0,0,0,0,,20,
"2,3-dihydrophthalazine-1,4-dione",C8H6N2O2,001445-69-8,O=C1NNC(=O)c2ccccc12,hall et al. (1989) ,0.11,8,6,2,2,0,0,0,0,0,0,,12,
2-(methyl-propan-2-yloxyphosphoryl)oxypropane,C7H17O3P1,001445-75-6,CC(C)O[P](C)(=O)OC(C)C,"krikorian,se et al. (1987) ",1.03,7,17,0,3,0,1,0,0,0,0,,11,
"1-methoxy-6,6,9-trimethyl-3-pentyl-6a,7,10,10a-tetrahydrobenzo[c]chromene",C22H32O2,001451-50-9,CCCCCc1cc(OC)c2C3CC(=CCC3C(C)(C)Oc2c1)C,biobyte starlist (2009) ,8.06,22,32,0,2,0,0,0,0,0,0,,24,
pyridine-2-carboxamide,C6H6N2O1,001452-77-3,NC(=O)c1ccccn1,"hansch,c et al. (1995) ",0.15,6,6,2,1,0,0,0,0,0,0,,9,
pyridine-4-carboxamide,C6H6N2O1,001453-82-3,NC(=O)c1ccncc1,"hansch,c et al. (1995) ",-0.28,6,6,2,1,0,0,0,0,0,0,,9,
2-(2-aminophenyl)aniline,C12H12N2,001454-80-4,Nc1ccccc1c2ccccc2N,"debnath,ak et al. (1992) ",1.34,12,12,2,0,0,0,0,0,0,0,,14,
"1h-1,2,4-triazole-3,5-diamine",C2H5N5,001455-77-2,Nc1[nH]nc(N)n1,pomona (1987) ,-1.61,2,5,5,0,0,0,0,0,0,0,,7,
"2-(3-methyl-1,2,4-oxadiazol-5-yl)pyridine",C8H7N3O1,001455-84-1,Cc1noc(n1)c2ccccn2,"hansch,c & leo,aj (1985) ",0.89,8,7,3,1,0,0,0,0,0,0,,12,
"2,6-dimethyl-4-nitrosomorpholine",C6H12N2O2,001456-28-6,CC1CN(CC(C)O1)N=O,"hansch,c et al. (1995) ",0.32,6,12,2,2,0,0,0,0,0,0,,10,
ethyl 2-oxo-2-(phenylamino)acetate,C10H11N1O3,001457-85-8,CCOC(=O)C(=O)Nc1ccccc1,"hansch,c et al. (1995) ",1.48,10,11,1,3,0,0,0,0,0,0,,14,
"cyclohexane-1,2-diol",C6H12O2,001792-81-0,OC1CCCCC1O,"hansch,c et al. (1995) ",0.23,6,12,0,2,0,0,0,0,0,0,,8,
"2-(hydroxymethyl)-6-(phenoxy)oxane-3,4,5-triol",C12H16O6,002818-58-8,OCC1OC(Oc2ccccc2)C(O)C(O)C1O,sangster (1994) ,-0.89,12,16,0,6,0,0,0,0,0,0,,18,
"2,6-dimethoxybenzoic acid",C9H10O4,001466-76-8,COc1cccc(OC)c1C(O)=O,"hansch,c et al. (1995) ",0.66,9,10,0,4,0,0,0,0,0,0,,13,
3-ethyl-1-(4-methylphenyl)sulfonylurea,C10H14N2O3S1,001467-23-8,CCNC(=O)N[S](=O)(=O)c1ccc(C)cc1,sangster (1993) ,1.14,10,14,2,3,1,0,0,0,0,0,,16,
dimethylcyanamide,C3H6N2,001467-79-4,CN(C)C#N,"hansch,c et al. (1995) ",-0.15,3,6,2,0,0,0,0,0,0,0,,5,
1-thiophen-3-ylethanone,C6H6O1S1,001468-83-3,CC(=O)c1cscc1,"hansch,c et al. (1995) ",1.24,6,6,0,1,1,0,0,0,0,0,,8,
anthracen-9-ylmethanol,C15H12O1,001468-95-7,OCc1c2ccccc2cc3ccccc13,"ritter,s et al. (1995) ",3.04,15,12,0,1,0,0,0,0,0,0,,16,
"1h-indene-1,3(2h)-dione, 2-(3-chlorophenyl)-",C15H9Cl1O2,001470-44-6,Clc1cccc(c1)C2C(=O)c3ccccc3C2=O,sangster (1994) ,3.61,15,9,0,2,0,0,0,1,0,0,,18,
1h-indole-2-carboxylic acid,C9H7N1O2,001477-50-5,OC(=O)c1[nH]c2ccccc2c1,"hansch,c et al. (1995) ",2.31,9,7,1,2,0,0,0,0,0,0,,12,
1-(4-fluorophenyl)-4-[4-(2-methoxyphenyl)piperazin-1-yl]butan-1-one,C21H25F1N2O2,001480-19-9,COc1ccccc1N2CCN(CCCC(=O)c3ccc(F)cc3)CC2,"kuipers,w et al. (1997) ",3.6,21,25,2,2,0,0,1,0,0,0,,26,
n-methylbenzohydrazide,C8H10N2O1,001483-24-5,CN(N)C(=O)c1ccccc1,"britto,mm et al. (1999) ",0.7,8,10,2,1,0,0,0,0,0,0,,11,
1-fluoro-2-nitrobenzene,C6H4F1N1O2,001493-27-2,[O-][N+](=O)c1ccccc1F,"hansch,c et al. (1995) ",1.69,6,4,1,2,0,0,1,0,0,0,,10,
4-butoxybenzoic acid,C11H14O3,001498-96-0,CCCCOc1ccc(cc1)C(O)=O,"hansch,c et al. (1995) ",3.57,11,14,0,3,0,0,0,0,0,0,,14,
5-oxo-5-phenylpentanoic acid,C11H12O3,001501-05-9,OC(=O)CCCC(=O)c1ccccc1,sangster (1994) ,1.49,11,12,0,3,0,0,0,0,0,0,,14,
2-(1-cyclohexenyl)cyclohexan-1-one,C12H18O1,001502-22-3,O=C1CCCCC1C2=CCCCC2,chemicals inspection and testing institu (1992) ,3.17,12,18,0,1,0,0,0,0,0,0,,13,
1-isothiocyanato-4-phenylbenzene,C13H9N1S1,001510-24-3,S=C=Nc1ccc(cc1)c2ccccc2,"hansch,c et al. (1995) ",4.66,13,9,1,0,1,0,0,0,0,0,,15,
"difluoromethanesulfonanilide,p-cl",C7H6Cl1F2N1O2S1,001513-31-1,c1c(Cl)ccc(NS(=O)(=O)C(F)F)c1,"hansch,c et al. (1995) ",2.84,7,6,1,2,1,0,2,1,0,0,,14,
"2,6-difluoropyridine",C5H3F2N1,001513-65-1,Fc1cccc(F)n1,"hansch,c et al. (1995) ",1.17,5,3,1,0,0,0,2,0,0,0,,8,
"benzonitrile, 4-(methoxymethyl)-",C9H9N1O1,001515-85-1,COCc1ccc(cc1)C#N,sangster (1993) ,1.23,9,9,1,1,0,0,0,0,0,0,,11,
(4-methylphenyl)-phenylmethanol,C14H14O1,001517-63-1,Cc1ccc(cc1)C(O)c2ccccc2,"hansch,c et al. (1995) ",3.13,14,14,0,1,0,0,0,0,0,0,,15,
1-phenylethanol,C8H10O1,001517-69-7,CC(O)c1ccccc1,"hansch,c et al. (1995) ",1.42,8,10,0,1,0,0,0,0,0,0,,9,
(3-nitrophenyl) acetate,C8H7N1O4,001523-06-4,CC(=O)Oc1cccc(c1)[N+]([O-])=O,"hansch,c et al. (1995) ",1.82,8,7,1,4,0,0,0,0,0,0,,13,
isoquinolin-1-amine,C9H8N2,001532-84-9,Nc1nccc2ccccc12,"hansch,c et al. (1995) ",1.9,9,8,2,0,0,0,0,0,0,0,,11,
butyl n-phenylcarbamate,C11H15N1O2,001538-74-5,CCCCOC(=O)Nc1ccccc1,"briggs,gg (1981) ",3.3,11,15,1,2,0,0,0,0,0,0,,14,
"1-(4-fluorophenyl)-6,6-dimethyl-1,3,5-triazine-2,4-diamine",C11H14F1N5,001542-59-2,CC1(C)N=C(N)N=C(N)N1c2ccc(F)cc2,"hansch,c et al. (1995) ",0.37,11,14,5,0,0,0,1,0,0,0,,17,
2-ethyl-1h-pyrrole,C6H9N1,001551-06-0,CCc1[nH]ccc1,"hansch,c et al. (1995) ",1.59,6,9,1,0,0,0,0,0,0,0,,7,
"2,4-pentadienoic acid, 5-phenyl-",C11H10O2,001552-94-9,OC(=O)C=CC=Cc1ccccc1,"hansch,c et al. (1995) ",3.15,11,10,0,2,0,0,0,0,0,0,,13,
2-[4-(2-methylpropyl)phenyl]acetic acid,C12H16O2,001553-60-2,CC(C)Cc1ccc(CC(O)=O)cc1,sangster (1994) ,3.35,12,16,0,2,0,0,0,0,0,0,,14,
8-ethoxyquinoline,C11H11N1O1,001555-94-8,CCOc1cccc2cccnc12,"hansch,c et al. (1995) ",2.25,11,11,1,1,0,0,0,0,0,0,,13,
"4,6-dimethylpyrimidine",C6H8N2,001558-17-4,Cc1cc(C)ncn1,"hansch,c et al. (1995) ",0.62,6,8,2,0,0,0,0,0,0,0,,8,
"2,2-dimethyl-3h-1-benzofuran-7-ol",C10H12O2,001563-38-8,CC1(C)Cc2cccc(O)c2O1,"hansch,c et al. (1995) ",2.08,10,12,0,2,0,0,0,0,0,0,,12,
4-acetylbenzenesulfonamide,C8H9N1O3S1,001565-17-9,CC(=O)c1ccc(cc1)[S](N)(=O)=O,"hansch,c et al. (1995) ",0.2,8,9,1,3,1,0,0,0,0,0,,13,
4-methoxy-2-nitrophenol,C7H7N1O4,001568-70-3,COc1ccc(O)c(c1)[N+]([O-])=O,"schwarzenbach,rp et al. (1988) ",2.02,7,7,1,4,0,0,0,0,0,0,,12,
ethyl pyridine-4-carboxylate,C8H9N1O2,001570-45-2,CCOC(=O)c1ccncc1,"hansch,c et al. (1995) ",1.43,8,9,1,2,0,0,0,0,0,0,,11,
2-methyl-4-chlorophenol,C7H7Cl1O1,001570-64-5,Cc1cc(Cl)ccc1O,"hansch,c et al. (1995) ",2.78,7,7,0,1,0,0,0,1,0,0,,9,
phenylphosphonic acid,C6H7O3P1,001571-33-1,O[P](O)(=O)c1ccccc1,"hansch,c et al. (1995) ",0.54,6,7,0,3,0,1,0,0,0,0,,10,
"1,3-pentadiene (e)",C5H8,002004-70-8,CC=CC=C,sangster (1994) ,2.44,5,8,0,0,0,0,0,0,0,0,,5,
1-methoxy-1-methyl-3-phenylurea,C9H12N2O2,001576-17-6,CON(C)C(=O)Nc1ccccc1,"hansch,c et al. (1995) ",1.29,9,12,2,2,0,0,0,0,0,0,,13,
"benzamide, 3-(aminosulfonyl)-",C7H8N2O3S1,001576-42-7,NC(=O)c1cccc(c1)[S](N)(=O)=O,"carotti,a et al. (1989) ",-0.84,7,8,2,3,1,0,0,0,0,0,,13,
4-hydroxybenzenesulfonamide,C6H7N1O3S1,001576-43-8,N[S](=O)(=O)c1ccc(O)cc1,"hansch,c et al. (1995) ",0.06,6,7,1,3,1,0,0,0,0,0,,11,
"2,6-dinitro-n,n-dipropyl-4-(trifluoromethyl)aniline",C13H16F3N3O4,001582-09-8,CCCN(CCC)c1c(cc(cc1[N+]([O-])=O)C(F)(F)F)[N+]([O-])=O,"hansch,c et al. (1995) ",5.34,13,16,3,4,0,0,3,0,0,0,,23,
"9-fluoro-11-hydroxy-10,13-dimethylspiro[1,2,6,7,8,11,12,14,15,16-decahydrocyclopenta[a]phenanthrene-17,5'-oxolane]-2',3-dione",C22H29F1O4,001582-75-8,CC12CC(O)C3(F)C(CCC4=CC(=O)CCC34C)C1CCC25CCC(=O)O5,sangster (1993) ,2.4,22,29,0,4,0,0,1,0,0,0,,27,
naphthalen-2-ylmethanol,C11H10O1,001592-38-7,OCc1ccc2ccccc2c1,"hansch,c et al. (1995) ",2.21,11,10,0,1,0,0,0,0,0,0,,12,