Names,Formula,CAS No,SMILES,Reference,Exp logp,C,H,N,O,S,P,F,Cl,Br,I,,,
"2,2',3,4,4'-pentachlorobiphenyl",C12H5Cl5,065510-45-4,Clc1ccc(c(Cl)c1)c2ccc(Cl)c(Cl)c2Cl,"hansch,c & leo,aj (1985) ",6.61,12,5,0,0,0,0,0,5,0,0,,17,
"benzoic acid, 4-[3-[(4-chlorophenyl)methyl]-3-me",C15H14Cl1N3O2,065542-14-5,CN(Cc2ccc(Cl)cc2)N=Nc1ccc(C(=O)(O))cc1,sangster (1993) ,4.85,15,14,3,2,0,0,0,1,0,0,,21,
4-[methyl-[(4-nitrophenyl)methyl]amino]diazenylbenzoic acid,C15H14N4O4,065542-15-6,CN(Cc1ccc(cc1)[N+]([O-])=O)N=Nc2ccc(cc2)C(O)=O,"hansch,c & leo,aj (1985) ",4.03,15,14,4,4,0,0,0,0,0,0,,23,
4-[(4-cyanophenyl)methyl-methylamino]diazenylbenzoic acid,C16H14N4O2,065542-16-7,CN(Cc1ccc(cc1)C#N)N=Nc2ccc(cc2)C(O)=O,"hansch,c & leo,aj (1985) ",3.6,16,14,4,2,0,0,0,0,0,0,,22,
4-[methyl-[(4-methylphenyl)methyl]amino]diazenylbenzoic acid,C16H17N3O2,065542-17-8,CN(Cc1ccc(C)cc1)N=Nc2ccc(cc2)C(O)=O,"hansch,c & leo,aj (1985) ",4.75,16,17,3,2,0,0,0,0,0,0,,21,
4-[(4-methoxyphenyl)methyl-methylamino]diazenylbenzoic acid,C16H17N3O3,065542-18-9,COc1ccc(CN(C)N=Nc2ccc(cc2)C(O)=O)cc1,"hansch,c & leo,aj (1985) ",4.43,16,17,3,3,0,0,0,0,0,0,,22,
4-(methyl-(phenylmethyl)amino)diazenylbenzonitrile,C15H14N4,065542-21-4,CN(Cc1ccccc1)N=Nc2ccc(cc2)C#N,"hansch,c & leo,aj (1985) ",3.82,15,14,4,0,0,0,0,0,0,0,,19,
n-butyl-2-methoxyaniline,C11H17N1O1,065570-20-9,CCCCNc1ccccc1OC,"hansch,c et al. (1995) ",2.85,11,17,1,1,0,0,0,0,0,0,,13,
4-(methyl-(phenylmethyl)amino)diazenylbenzoic acid,C15H15N3O2,065587-38-4,CN(Cc1ccccc1)N=Nc2ccc(cc2)C(O)=O,pomona (1987) ,4.04,15,15,3,2,0,0,0,0,0,0,,20,
"6,6,6-trifluoro-1-hexanol",C6H11F3O1,065611-47-4,OCCCCCC(F)(F)F,"muller,n (1986) ",1.64,6,11,0,1,0,0,3,0,0,0,,10,
(2-diethylamino-2-oxoethyl) 2-hydroxybenzoate,C13H17N1O4,065783-69-9,CCN(CC)C(=O)COC(=O)c1ccccc1O,biobyte (1995) ,1.99,13,17,1,4,0,0,0,0,0,0,,18,
"5-[(2,6-dimethoxypyridin-3-yl)methyl]pyrimidine-2,4-diamine",C12H15N5O2,065873-69-0,COc1ccc(Cc2cnc(N)nc2N)c(OC)n1,"hansch,c & leo,aj (1985) ",2.01,12,15,5,2,0,0,0,0,0,0,,19,
"4-amino-1-[3,4-dihydroxy-5-(hydroxymethyl)oxolan-2-yl]-1,3,5-triazin-2-one",C8H12N4O5,065886-71-7,NC1=NC(=O)N(C=N1)C2OC(CO)C(O)C2O,sangster (1994) ,-2.17,8,12,4,5,0,0,0,0,0,0,,17,
2-bromo-4-nitro-1h-imidazole,C3H2Br1N3O2,065902-59-2,[O-][N+](=O)c1c[nH]c(Br)n1,"suwinski,j et al. (1985) ",0.71,3,2,3,2,0,0,0,0,1,0,,9,
"(2,2-dimethyl-3h-1-benzofuran-7-yl) n-(methoxycarbonyl-methylamino)sulfanyl-n-methylcarbamate",C15H20N2O5S1,065907-26-8,COC(=O)N(C)SN(C)C(=O)Oc1cccc2CC(C)(C)Oc12,"hansch,c & leo,aj (1985) ",3,15,20,2,5,1,0,0,0,0,0,,23,
"(2,2-dimethyl-3h-1-benzofuran-7-yl) n-(ethoxycarbonyl-methylamino)sulfanyl-n-methylcarbamate",C16H22N2O5S1,065907-27-9,CCOC(=O)N(C)SN(C)C(=O)Oc1cccc2CC(C)(C)Oc12,"hansch,c & leo,aj (1985) ",3.5,16,22,2,5,1,0,0,0,0,0,,24,
"[11-hydroxy-17-(2-hydroxyacetyl)-10,13-dimethyl-3-oxo-2,6,7,8,9,11,12,14,15,16-decahydro-1h-cyclopenta[a]phenanthren-17-yl] propanoate",C24H34O6,065980-97-4,CCC(=O)OC1(CCC2C3CCC4=CC(=O)CCC4(C)C3C(O)CC12C)C(=O)CO,"hansch,c et al. (1995) ",2.7,24,34,0,6,0,0,0,0,0,0,,30,
"1-[3-(trifluoromethyl)phenyl]-4,5-dihydropyrazol-3-amine",C10H10F3N3,not,NC1=NN(CC1)c2cccc(c2)C(F)(F)F,biobyte (1995) ,2.56,10,10,3,0,0,0,3,0,0,0,,16,
pencycuron,C19H21Cl1N2O1,066063-05-6,Clc1ccc(CN(C2CCCC2)C(=O)Nc3ccccc3)cc1,"hansch,c et al. (1995) ",4.82,19,21,2,1,0,0,0,1,0,0,,23,
2-fluoro-6-chlorobenzamide,C7H5Cl1F1N1O1,066073-54-9,NC(=O)c1c(F)cccc1Cl,"nakagawa,y et al. (1992) ",0.49,7,5,1,1,0,0,1,1,0,0,,11,
"2-(5-methyl-1,3,4-oxadiazol-2-yl)pyridine",C8H7N3O1,066079-85-4,Cc1oc(nn1)c2ccccn2,"hansch,c & leo,aj (1985) ",0.46,8,7,3,1,0,0,0,0,0,0,,12,
"5-(acetyl-(2,3-dihydroxypropyl)amino)-n,n'-bis(2,3-dihydroxypropyl)-2,4,6-triiodobenzene-1,3-dicarboxamide",C19H26I3N3O9,066108-95-0,CC(=O)N(CC(O)CO)c1c(I)c(C(=O)NCC(O)CO)c(I)c(C(=O)NCC(O)CO)c1I,"hansch,c & leo,aj (1985) ",-3.05,19,26,3,9,0,0,0,0,0,3,,34,
"1-[4,7-dimethoxy-6-(2-pyrrolidin-1-ylethoxy)-1-benzofuran-5-yl]-3-methylurea",C18H25N3O5,066203-00-7,CNC(=O)Nc1c(OC)c2ccoc2c(OC)c1OCCN3CCCC3,"mannhold,r et al. (1990) ",1.38,18,25,3,5,0,0,0,0,0,0,,26,
1-dodecanoylpyrrolidin-2-one,C16H29N1O2,066283-26-9,CCCCCCCCCCCC(=O)N1CCCC1=O,"hansch,c et al. (1995) ",5.05,16,29,1,2,0,0,0,0,0,0,,19,
n-(3-propan-2-yloxyphenyl)-2-(trifluoromethyl)benzamide,C17H16F3N1O2,066332-96-5,CC(C)Oc1cccc(NC(=O)c2ccccc2C(F)(F)F)c1,biobyte (1995) ,3.7,17,16,1,2,0,0,3,0,0,0,,23,
"n-(n-me-hxocarbamylthio)methomyl""",C13H25N3O4S2,066381-49-5,CC(=NOC(=O)N(C)SN(C)C(=O)OCCCCCC)SC,"hansch,c & leo,aj (1985) ",4.2,13,25,3,4,2,0,0,0,0,0,,22,
"n-(n-bu-buo-carbamylthio)methomyl""",C14H27N3O4S2,066381-51-9,CN(SN(CCCC)C(=O)OCCCC)C(=O)ON=C(C)SC,"hansch,c & leo,aj (1985) ",4.2,14,27,3,4,2,0,0,0,0,0,,23,
"n(n-bu-meo carbamylthio)methomyl""",C11H21N3O4S2,066381-55-3,CN(SN(CCCC)C(=O)OC)C(=O)ON=C(C)SC,"hansch,c & leo,aj (1985) ",2.5,11,21,3,4,2,0,0,0,0,0,,20,
"n(n-me-cypr carbamylthio)methomyl""",C10H17N3O3S2,066469-80-5,CC(=NOC(=O)N(C)SN(C)C(=O)C1CC1)SC,"hansch,c & leo,aj (1985) ",1.7,10,17,3,3,2,0,0,0,0,0,,18,
"1h-benzotriazole, 1-cyclopentyl-",C11H13N3,066480-64-6,C1CCC(C1)n2nnc3ccccc23,"sparatore,f et al. (1988) ",2.61,11,13,3,0,0,0,0,0,0,0,,14,
"2h-benzotriazole, 2-cyclohexyl-",C12H15N3,066480-65-7,C1CCC(CC1)n2nc3ccccc3n2,"sparatore,f et al. (1988) ",3.63,12,15,3,0,0,0,0,0,0,0,,15,
4-(methyl-octylamino)diazenylbenzamide,C16H26N4O1,066521-49-1,CCCCCCCCN(C)N=Nc1ccc(cc1)C(N)=O,"hansch,c et al. (1995) ",4.7,16,26,4,1,0,0,0,0,0,0,,21,
"2h-benzotriazole, 2-cyclopentyl-",C11H13N3,066536-69-4,C1CCC(C1)n2nc3ccccc3n2,"sparatore,f et al. (1988) ",3.04,11,13,3,0,0,0,0,0,0,0,,14,
"1h-benzotriazole, 1-cyclohexyl-",C12H15N3,066536-70-7,C1CCC(CC1)n2nnc3ccccc23,"sparatore,f et al. (1988) ",3.11,12,15,3,0,0,0,0,0,0,0,,15,
"(5-fluoro-2,4-dioxopyrimidin-1-yl)methyl butanoate",C9H11F1N2O4,066542-37-8,CCCC(=O)OCN1C=C(F)C(=O)NC1=O,biobyte (1995) ,0.47,9,11,2,4,0,0,1,0,0,0,,16,
"5-(2-methylbenzoyl)-2,3-dihydro-1h-pyrrolizine-1-carboxylic acid",C16H15N1O3,066635-84-5,Cc1ccccc1C(=O)c2ccc3C(CCn23)C(O)=O,sangster (1993) ,2.9,16,15,1,3,0,0,0,0,0,0,,20,
"5-(4-fluorobenzoyl)-2,3-dihydro-1h-pyrrolizine-1-carboxylic acid",C15H12F1N1O3,066635-90-3,OC(=O)C1CCn2c1ccc2C(=O)c3ccc(F)cc3,sangster (1993) ,2.82,15,12,1,3,0,0,1,0,0,0,,20,
"2,3-dimethoxy-n-[(1-prop-2-enylpyrrolidin-2-yl)methyl]-5-sulfamoylbenzamide",C17H25N3O5S1,066644-81-3,COc1cc(cc(C(=O)NCC2CCCN2CC=C)c1OC)[S](N)(=O)=O,"mannhold,r et al. (1990) ",1.47,17,25,3,5,1,0,0,0,0,0,,26,
1-(propan-2-ylamino)-3-[4-(2-propan-2-yloxyethoxymethyl)phenoxy]propan-2-ol,C18H31N1O4,066722-44-9,CC(C)NCC(O)COc1ccc(COCCOC(C)C)cc1,"recanatini,m (1992) ",1.87,18,31,1,4,0,0,0,0,0,0,,23,
"3,3',4-trichlorodiphenyl ether",C12H7Cl3O1,066794-60-3,Clc1c(Cl)ccc(Oc2cccc(Cl)c2)c1,"kurz,j & ballschmiter,k (1999) ",5.74,12,7,0,1,0,0,0,3,0,0,,16,
"naphtho[1,2c5,6c']dipyrazole,tr-2,3b,4,5,7,8b,9,",C12H14N4,066818-22-2,C1CC2=C(C3C1C4=C(CC3)C=NN4)NN=C2,biobyte starlist (2009) ,0.3,12,14,4,0,0,0,0,0,0,0,,16,
"5-methyl-5-(3-methylbut-2-enyl)-1,3-diazinane-2,4,6-trione",C10H14N2O3,066843-01-4,CC(C)=CCC1(C)C(=O)NC(=O)NC1=O,"prankerd,rj & mckeown,rh (1992) ",1.17,10,14,2,3,0,0,0,0,0,0,,15,
n-(2-iodophenyl)diazenyl-n-methylmethanamine,C8H10I1N3,066974-58-1,CN(C)N=Nc1ccccc1I,"hansch,c et al. (1995) ",3.5,8,10,3,0,0,0,0,0,0,1,,12,
(2-dimethylaminodiazenylphenyl)methanol,C9H13N3O1,066974-61-6,CN(C)N=Nc1ccccc1CO,"hansch,c et al. (1995) ",1.73,9,13,3,1,0,0,0,0,0,0,,13,
4-(methyl-prop-2-enylamino)diazenylbenzamide,C11H14N4O1,066974-73-0,CN(CC=C)N=Nc1ccc(cc1)C(N)=O,pomona (1987) ,2.09,11,14,4,1,0,0,0,0,0,0,,16,
4-(methoxy-methylamino)diazenylbenzamide,C9H12N4O2,066974-76-3,CON(C)N=Nc1ccc(cc1)C(N)=O,"hansch,c et al. (1995) ",1.19,9,12,4,2,0,0,0,0,0,0,,15,
2-dimethylaminodiazenyl-n-methylbenzamide,C10H14N4O1,066974-88-7,CNC(=O)c1ccccc1N=NN(C)C,"hansch,c & leo,aj (1985) ",1.83,10,14,4,1,0,0,0,0,0,0,,15,
n-(cyanomethyl)-2-dimethylaminodiazenylbenzamide,C11H13N5O1,066974-90-1,CN(C)N=Nc1ccccc1C(=O)NCC#N,pomona (1987) ,1.79,11,13,5,1,0,0,0,0,0,0,,17,
n-(2-amino-2-oxoethyl)-2-dimethylaminodiazenylbenzamide,C11H15N5O2,not,CN(C)N=Nc1ccccc1C(=O)NCC(N)=O,biobyte (1995) ,1.18,11,15,5,2,0,0,0,0,0,0,,18,
n-cyano-2-dimethylaminodiazenylbenzamide,C10H11N5O1,066974-92-3,CN(C)N=Nc1ccccc1C(=O)NC#N,"hansch,c & leo,aj (1985) ",0.8,10,11,5,1,0,0,0,0,0,0,,16,
n-methyl-n-(4-methylphenyl)diazenylacetamide,C10H13N3O1,066975-11-9,CN(N=Nc1ccc(C)cc1)C(C)=O,"hansch,c et al. (1995) ",3.23,10,13,3,1,0,0,0,0,0,0,,14,
2-dimethylaminodiazenylbenzohydrazide,C9H13N5O1,066975-13-1,CN(C)N=Nc1ccccc1C(=O)NN,"hansch,c & leo,aj (1985) ",1.28,9,13,5,1,0,0,0,0,0,0,,15,
4-(methoxymethyl)benzoic acid,C9H10O3,067003-50-3,COCc1ccc(cc1)C(O)=O,"hansch,c et al. (1995) ",1.76,9,10,0,3,0,0,0,0,0,0,,12,
"n-(2,6-dimethylphenyl)-2-phenyl-n-(3-piperidin-1-ylpropyl)acetamide",C24H32N2O1,067023-19-2,Cc1cccc(C)c1N(CCCN2CCCCC2)C(=O)Cc3ccccc3,sangster (1993) ,5.28,24,32,2,1,0,0,0,0,0,0,,27,
"5-(3-methylbut-2-enyl)-5-propan-2-yl-1,3-diazinane-2,4,6-trione",C12H18N2O3,067051-26-7,CC(C)C1(CC=C(C)C)C(=O)NC(=O)NC1=O,"prankerd,rj & mckeown,rh (1992) ",2.23,12,18,2,3,0,0,0,0,0,0,,17,
metazachlor,C14H16Cl1N3O1,067129-08-2,Cc1cccc(C)c1N(Cn2cccn2)C(=O)CCl,"tomlin,c (1997) ",2.13,14,16,3,1,0,0,0,1,0,0,,19,
1-pentan-2-ylbenzotriazole,C11H15N3,067246-30-4,CCCC(C)n1nnc2ccccc12,"hansch,c & leo,aj (1985) ",2.95,11,15,3,0,0,0,0,0,0,0,,14,
1-phenylhexan-2-amine,C12H19N1,067309-36-8,CCCCC(N)Cc1ccccc1,"hansch,c et al. (1995) ",3.36,12,19,1,0,0,0,0,0,0,0,,13,
"3,3-dimethyl-1-phenylbutan-2-amine",C12H19N1,067309-37-9,CC(C)(C)C(N)Cc1ccccc1,"hansch,c et al. (1995) ",2.91,12,19,1,0,0,0,0,0,0,0,,13,
4-methyl-1-phenylpentan-2-amine,C12H19N1,067309-38-0,CC(C)CC(N)Cc1ccccc1,"hansch,c et al. (1995) ",3.29,12,19,1,0,0,0,0,0,0,0,,13,
"dibenzodioxin,1,2,6,8-tetrachloro",C12H4Cl4O2,067323-56-2,c32c(Cl)cc(Cl)cc3Oc1c(ccc(Cl)c1Cl)O2,biobyte starlist (2009) ,6.43,12,4,0,2,0,0,0,4,0,0,,18,
"3,5-dioxa-6-aza-4-phospaoct-6-ene-8-nitrile, 4-a",C10H12N3O3P1,067410-39-3,CCOP(N)(=O)ON=C(C(#N))c1ccccc1,sangster (1993) ,0.72,10,12,3,3,0,1,0,0,0,0,,17,
"3,5-dioxa-6-aza-4-phosphaoct-6-ene-8-nitrile, 7-",C11H13Cl1N3O3P1,067410-46-2,CCOP(=O)(NC)ON=C(C(#N))c1ccc(Cl)cc1,sangster (1993) ,2.5,11,13,3,3,0,1,0,1,0,0,,19,
hydramethylnon,C25H24F6N4,067485-29-4,CC1(C)CNC(=NC1)N\N=C(/C=C/c2ccc(cc2)C(F)(F)F)\C=C\c3ccc(cc3)C(F)(F)F,"tomlin,c (1994); unstated ph ",2.31,25,24,4,0,0,0,6,0,0,0,,35,
n'-(benzoyl)-n-tert-butyl-4-nitrobenzohydrazide,C18H19N3O4,067523-85-7,CC(C)(C)N(NC(=O)c1ccccc1)C(=O)c2ccc(cc2)[N+]([O-])=O,"oikawa,n et al. (1994) ",2.63,18,19,3,4,0,0,0,0,0,0,,25,
"4-[3-(4-tert-butylphenyl)-2-methylpropyl]-2,6-dimethylmorpholine",C20H33N1O1,067564-91-4,CC(CN1CC(C)OC(C)C1)Cc2ccc(cc2)C(C)(C)C,"chamberlain,k et al. (1996) ",4.93,20,33,1,1,0,0,0,0,0,0,,22,
67730-10-3,C10H8N4,not,Nc1ccc2nc3ccccn3c2n1,"hansch,c et al. (1995) ",1.38,10,8,4,0,0,0,0,0,0,0,,14,
67730-11-4,C11H10N4,not,Cc1cccn2c1nc3ccc(N)nc23,"hansch,c et al. (1995) ",1.75,11,10,4,0,0,0,0,0,0,0,,15,
prochloraz,C15H16Cl3N3O2,067747-09-5,CCCN(CCOc1c(Cl)cc(Cl)cc1Cl)C(=O)n2ccnc2,"baker,ea et al. (1992) ",4.1,15,16,3,2,0,0,0,3,0,0,,23,
"3,5-dimethyl-1-nitrosopiperazine",C6H13N3O1,067774-31-6,CC1CN(CC(C)N1)N=O,"hansch,c et al. (1995) ",0.73,6,13,3,1,0,0,0,0,0,0,,10,
2-ethylbenzamide,C9H11N1O1,067832-97-7,CCc1ccccc1C(N)=O,"nakagawa,y et al. (1992) ",1.17,9,11,1,1,0,0,0,0,0,0,,11,
exo-2-chloronorbornane,C7H11Cl1,067844-27-3,ClC1CC2CCC1C2,"lodge,kb (1999) ",3.35,7,11,0,0,0,0,0,1,0,0,,8,
2-methyl-6-propoxypyrazine,C8H12N2O1,067845-28-7,CCCOc1cncc(C)n1,"hansch,c et al. (1995) ",2.29,8,12,2,1,0,0,0,0,0,0,,11,
"n,n-bis(2-methoxyethyl)nitrous amide",C6H14N2O3,067856-65-9,O(C)CCN(CCOC)N=O,"hansch,c et al. (1995) ",-0.38,6,14,2,3,0,0,0,0,0,0,,11,
"n,n-bis(2-ethoxyethyl)nitrous amide",C8H18N2O3,067856-66-0,CCOCCN(CCOCC)N=O,"hansch,c et al. (1995) ",0.79,8,18,2,3,0,0,0,0,0,0,,13,
"1,2,4-tribromo-5-(2,5-dibromophenyl)benzene",C12H5Br5,067888-96-4,Brc1ccc(Br)c(c1)c2cc(Br)c(Br)cc2Br,biobyte (1995) ,7.1,12,5,0,0,0,0,0,0,5,0,,17,
"1,2,3,4,6-pentachloronaphthalene",C10H3Cl5,067922-26-3,Clc1ccc2c(Cl)c(Cl)c(Cl)c(Cl)c2c1,"lei,yd et al. (2000) ",7,10,3,0,0,0,0,0,5,0,0,,15,
b21c7-benzo crown ether,C18H28O7,067950-78-1,c1cc2OCCOCCOCCOCCOCCOCCOc2cc1,"stolwijk,tb et al. (1989) ",0.57,18,28,0,7,0,0,0,0,0,0,,25,
4-methoxy-5-nitro-1h-imidazole,C4H5N3O3,068019-78-3,COc1nc[nH]c1[N+]([O-])=O,"suwinski,j et al. (1985) ",0.13,4,5,3,3,0,0,0,0,0,0,,10,
lambda-cyhalothrin,C23H19Cl1F3N1O3,091465-08-6,CC1(C)[C@@H](\C=C(/Cl)C(F)(F)F)[C@H]1C(=O)OC(C#N)c2cccc(Oc3ccccc3)c2,"tomlin,c (1994) ",7,23,19,1,3,0,0,3,1,0,0,,31,
"2-[2-cyanoethyl-[4-[(6-nitro-1,3-benzothiazol-2-yl)diazenyl]phenyl]amino]ethyl acetate",C20H18N6O4S1,068133-69-7,CC(=O)OCCN(CCC#N)c1ccc(cc1)N=Nc2sc3cc(ccc3n2)[N+]([O-])=O,"sijm,dthm et al. (1999) ",4.08,20,18,6,4,1,0,0,0,0,0,,31,
forchlorfenuron,C12H10Cl1N3O1,068157-60-8,Clc1cc(NC(=O)Nc2ccccc2)ccn1,"tomlin,c (1997) ",3.2,12,10,3,1,0,0,0,1,0,0,,17,
"1h-imidazole-1-ethanol, 2-nitro-_-[(1-propenylox",C9H13N3O4,068160-71-4,CC=COCC(O)Cn1ccnc1N(=O)(=O),sangster (1994) ,0.28,9,13,3,4,0,0,0,0,0,0,,16,
1-(5-no2-2-furyl)-2-no2-2-coome ethylene,C8H6N2O7,068162-37-8,COC(=O)C(=Cc1ccc(N(=O)(=O))o1)N(=O)(=O),"balaz,s et al. (1987) ",1.6,8,6,2,7,0,0,0,0,0,0,,17,
1-(5-br-2-furyl)-2-no2-2-coome ethylene,C8H6Br1N1O5,068162-38-9,COC(=O)C(=Cc1ccc(Br)o1)N(=O)(=O),"balaz,s et al. (1987) ",2.74,8,6,1,5,0,0,0,0,1,0,,15,
"2,2',3,4',6,6'-hexachlorobiphenyl",C12H4Cl6,068194-08-1,Clc1cc(Cl)c(c(Cl)c1)c2c(Cl)ccc(Cl)c2Cl,biobyte starlist (2009) ,6.75,12,4,0,0,0,0,0,6,0,0,,18,
"1-piperidinebutanamide, _-[2-[bis(1-methylethyl)",C23H38Cl1N3O1,068284-69-5,CC(C)N(C(C)C)CCC(c2c(Cl)cccc2)(C(=O)N)CCN1CCCCC1,sangster (1994) ,4.78,23,38,3,1,0,0,0,1,0,0,,28,
1-methoxy-1-methyl-3-[4-[2-(4-methylphenyl)ethoxy]phenyl]urea,C18H22N2O3,068358-79-2,CON(C)C(=O)Nc1ccc(OCCc2ccc(C)cc2)cc1,"hansch,c et al. (1995) ",3.81,18,22,2,3,0,0,0,0,0,0,,23,
cyfluthrin,C22H18Cl2F1N1O3,068359-37-5,CC1(C)C(C=C(Cl)Cl)C1C(=O)OC(C#N)c2ccc(F)c(Oc3ccccc3)c2,"tomlin,c (1994) ",5.95,22,18,1,3,0,0,1,2,0,0,,29,
"6-fluorospiro[chroman-4,5'-imidazolidine]-2',4'-dione",C11H9F1N2O3,068367-52-2,Fc1ccc2OCCC3(NC(=O)NC3=O)c2c1,"hansch,c et al. (1995) ",0.78,11,9,2,3,0,0,1,0,0,0,,17,
(2-acetamido-2-oxoethyl) benzoate,C11H11N1O4,068659-48-3,CC(=O)NC(=O)COC(=O)c1ccccc1,"nielsen,nm & bundgaard,h (1988) ",1.24,11,11,1,4,0,0,0,0,0,0,,16,
"5,12-naphthacenedione, derivative",C31H36N2O11,068681-75-4,CC1C(C(CC(O1)OC2CC(CC3=C2C(=C4C(=C3O)C(=O)C5=C(C4=N)C(=CC=C5)OC)O)(C(=O)CO)O)N6CCOCC6)O,sangster (1994) ,1.26,31,36,2,11,0,0,0,0,0,0,,44,
triflumizole,C15H15Cl1F3N3O1,068694-11-1,CCCOCC(=Nc1ccc(Cl)cc1C(F)(F)F)n2ccnc2,"hansch,c et al. (1995) ",1.4,15,15,3,1,0,0,3,1,0,0,,23,
pyridazine-4-carbonitrile,C5H3N3,068776-62-5,N#Cc1ccnnc1,"yamagami,c et al. (1990) ",-0.63,5,3,3,0,0,0,0,0,0,0,,8,
azo dye n1,C21H20Br1N7O6,068877-63-4,CC(=O)NC1=CC(=C(C=C1N=NC2=C(C=C(C=C2Br)[N+](=O)[O-])[N+](=O)[O-])OC)N(CCC#N)CC=C,"baughman,gl & weber,ej (1991) ",5.4,21,20,7,6,0,0,0,0,1,0,,35,
"5-[(3,5-dimethoxy-4-methylsulfanylphenyl)methyl]pyrimidine-2,4-diamine",C14H18N4O2S1,068902-57-8,COc1cc(Cc2cnc(N)nc2N)cc(OC)c1SC,"hansch,c & leo,aj (1985) ",1.54,14,18,4,2,1,0,0,0,0,0,,21,
"2,2',4-trichlorodiphenyl ether",C12H7Cl3O1,068914-97-6,Clc2cc(Cl)ccc2Oc1ccccc1Cl,"kurz,j & ballschmiter,k (1999) ",4.96,12,7,0,1,0,0,0,3,0,0,,16,
henylaceticacid5hydroxy226dichloroanilino,C14H11Cl2N1O3,not,Clc2cccc(Cl)c2Nc1ccc(O)cc1CC(=O)O,biobyte (1995) ,3.94,14,11,1,3,0,0,0,2,0,0,,20,
"guanidine, n-[2-[[[2-[(aminoiminomethyl)amino]-4",C10H16N8S2,069014-14-8,c1(CSCCNC(NC)=NC(#N))csc(N=C(N)N)n1,pomona (1987) ,0.68,10,16,8,0,2,0,0,0,0,0,,20,
"9-ethyl-4,6-dioxo-10-propylpyrano[5,6-g]quinoline-2,8-dicarboxylic acid",C19H17N1O7,069049-73-6,CCCc1c2OC(=CC(=O)c2cc3C(=O)C=C(N(CC)c13)C(O)=O)C(O)=O,sangster (1994) ,2.22,19,17,1,7,0,0,0,0,0,0,,27,
pp969,C14H25N3O2,069141-50-0,CC(C)(C)C(=O)CC(n1ncnc1)C(O)C(C)(C)C,biobyte (1995) ,1.95,14,25,3,2,0,0,0,0,0,0,,19,
"(2-propan-2-yloxyphenyl) n,n-dimethylcarbamate",C12H17N1O3,069148-74-9,CC(C)Oc1ccccc1OC(=O)N(C)C,"hansch,c & leo,aj (1985) ",2.06,12,17,1,3,0,0,0,0,0,0,,16,
"3-ph propionaldehyde oxime,me ether",C10H13N1O1,069163-87-7,CON=CCCc1ccccc1,"hansch,c & leo,aj (1985) ",2.14,10,13,1,1,0,0,0,0,0,0,,12,
"hydrazinecarboxamide, n-(4-chlorophenyl)",C7H8Cl1N3O1,069194-89-4,NNC(=O)Nc1ccc(Cl)cc1,"kramer,cr & beck,l (1981) ",0.87,7,8,3,1,0,0,0,1,0,0,,12,
1-pentylbenzotriazole,C11H15N3,069218-26-4,CCCCCn1nnc2ccccc12,"hansch,c & leo,aj (1985) ",3.22,11,15,3,0,0,0,0,0,0,0,,14,
1-propan-2-ylbenzotriazole,C9H11N3,069218-29-7,CC(C)n1nnc2ccccc12,"hansch,c & leo,aj (1985) ",1.98,9,11,3,0,0,0,0,0,0,0,,12,
1-hexan-2-ylbenzotriazole,C12H17N3,069218-30-0,CCCCC(C)n1nnc2ccccc12,"hansch,c & leo,aj (1985) ",3.44,12,17,3,0,0,0,0,0,0,0,,15,
3-(benzotriazol-1-yl)propan-1-ol,C9H11N3O1,069218-34-4,OCCCn1nnc2ccccc12,"hansch,c & leo,aj (1985) ",0.91,9,11,3,1,0,0,0,0,0,0,,13,
4-(benzotriazol-1-yl)butan-1-ol,C10H13N3O1,069218-35-5,OCCCCn1nnc2ccccc12,"hansch,c & leo,aj (1985) ",1.03,10,13,3,1,0,0,0,0,0,0,,14,
5-(benzotriazol-1-yl)pentan-1-ol,C11H15N3O1,069218-36-6,OCCCCCn1nnc2ccccc12,"hansch,c & leo,aj (1985) ",1.51,11,15,3,1,0,0,0,0,0,0,,15,
6-(benzotriazol-1-yl)hexan-1-ol,C12H17N3O1,069218-37-7,OCCCCCCn1nnc2ccccc12,"hansch,c & leo,aj (1985) ",1.71,12,17,3,1,0,0,0,0,0,0,,16,
5-(benzotriazol-1-yl)pentanoic acid,C11H13N3O2,069218-42-4,OC(=O)CCCCn1nnc2ccccc12,"sparatore,f et al. (1978) ",0.48,11,13,3,2,0,0,0,0,0,0,,16,
6-(benzotriazol-1-yl)hexanoic acid,C12H15N3O2,069218-43-5,OC(=O)CCCCCn1nnc2ccccc12,"hansch,c & leo,aj (1985) ",0.86,12,15,3,2,0,0,0,0,0,0,,17,
5-(benzotriazol-2-yl)pentanoic acid,C11H13N3O2,069218-44-6,OC(=O)CCCCn1nc2ccccc2n1,"sparatore,f et al. (1978) ",0.94,11,13,3,2,0,0,0,0,0,0,,16,
ethyl 2-(benzotriazol-1-yl)acetate,C10H11N3O2,069218-46-8,CCOC(=O)Cn1nnc2ccccc12,sangster (1993) ,1.3,10,11,3,2,0,0,0,0,0,0,,15,
ethyl 3-(benzotriazol-1-yl)propanoate,C11H13N3O2,069218-47-9,CCOC(=O)CCn1nnc2ccccc12,"sparatore,f et al. (1978) ",1.6,11,13,3,2,0,0,0,0,0,0,,16,
ethyl 4-(benzotriazol-1-yl)butanoate,C12H15N3O2,069218-48-0,CCOC(=O)CCCn1nnc2ccccc12,"hansch,c & leo,aj (1985) ",1.86,12,15,3,2,0,0,0,0,0,0,,17,
ethyl 5-(benzotriazol-1-yl)pentanoate,C13H17N3O2,069218-49-1,CCOC(=O)CCCCn1nnc2ccccc12,"hansch,c & leo,aj (1985) ",2.2,13,17,3,2,0,0,0,0,0,0,,18,
ethyl 6-(benzotriazol-1-yl)hexanoate,C14H19N3O2,069218-50-4,CCOC(=O)CCCCCn1nnc2ccccc12,"hansch,c & leo,aj (1985) ",2.68,14,19,3,2,0,0,0,0,0,0,,19,
ethyl 2-(benzotriazol-2-yl)acetate,C10H11N3O2,069218-51-5,CCOC(=O)Cn1nc2ccccc2n1,sangster (1993) ,1.85,10,11,3,2,0,0,0,0,0,0,,15,
ethyl 3-(benzotriazol-2-yl)propanoate,C11H13N3O2,069218-52-6,CCOC(=O)CCn1nc2ccccc2n1,"sparatore,f et al. (1978) ",2.12,11,13,3,2,0,0,0,0,0,0,,16,
2-(benzotriazol-1-yl)acetamide,C8H8N4O1,069218-56-0,NC(=O)Cn1nnc2ccccc12,"hansch,c & leo,aj (1985) ",-0.1,8,8,4,1,0,0,0,0,0,0,,13,
3-(benzotriazol-1-yl)propanamide,C9H10N4O1,069218-57-1,NC(=O)CCn1nnc2ccccc12,"hansch,c & leo,aj (1985) ",0.27,9,10,4,1,0,0,0,0,0,0,,14,
"2-tert-butylimino-5-phenyl-3-propan-2-yl-1,3,5-thiadiazinan-4-one",C16H23N3O1S1,069327-76-0,CC(C)N1C(=O)N(CSC1=NC(C)(C)C)c2ccccc2,"tomlin,c (2003) ",4.3,16,23,3,1,1,0,0,0,0,0,,21,
2-[4-[5-(trifluoromethyl)pyridin-2-yl]oxyphenoxy]propanoic acid,C15H12F3N1O4,069335-91-7,CC(Oc1ccc(Oc2ccc(cn2)C(F)(F)F)cc1)C(O)=O,"comer,j et al. (1995) ",3.18,15,12,1,4,0,0,3,0,0,0,,23,
1-(1-adamantyl)imidazole,C13H18N2,069380-11-6,C1C2CC3CC1CC(C2)(C3)n4ccnc4,"hansch,c et al. (1995) ",2.9,13,18,2,0,0,0,0,0,0,0,,15,
3-(1h-indol-3-yl)-n-methylpropanamide,C12H14N2O1,069397-85-9,CNC(=O)CCc1c[nH]c2ccccc12,"radzicka,a & wolfenden,r (1988) ",1.23,12,14,2,1,0,0,0,0,0,0,,15,
3-methyl-2-(phenylmethylamino)pentanoic acid,C13H19N1O2,069410-51-1,CCC(C)C(NCc1ccccc1)C(O)=O,"hansch,c et al. (1995) ",-0.27,13,19,1,2,0,0,0,0,0,0,,16,
"n-(4-hydroxy-2,5-dimethylphenyl)acetamide",C10H13N1O2,069477-71-0,CC(=O)Nc1cc(C)c(O)cc1C,"nakagawa,y et al. (1992) ",0.6,10,13,1,2,0,0,0,0,0,0,,13,