Names,Formula,CAS No,SMILES,Reference,Exp logp,C,H,N,O,S,P,F,Cl,Br,I,,,
"2,5-dimethylcyclohexa-2,5-diene-1,4-dione",C8H8O2,000137-18-8,CC1=CC(=O)C(=CC1=O)C,"hansch,c et al. (1995) ",1.28,8,8,0,2,0,0,0,0,0,0,,10,
dimethylcarbamothioylsulfanyl dimethylaminomethanedithioate,C6H12N2S4,000137-26-8,CN(C)C(=S)SSC(=S)N(C)C,"tomlin,c (2003) ",1.73,6,12,2,0,4,0,0,0,0,0,,12,
2-methylbutan-1-ol,C5H12O1,000137-32-6,CCC(C)CO,"valvani,sc et al. (1981) ",1.29,5,12,0,1,0,0,0,0,0,0,,6,
"2-diethylamino-n-(2,6-dimethylphenyl)acetamide",C14H22N2O1,000137-58-6,CCN(CC)CC(=O)Nc1c(C)cccc1C,"avdeef,a (1997) ",2.44,14,22,2,1,0,0,0,0,0,0,,17,
4-ethylbenzenesulfonamide,C8H11N1O2S1,000138-38-5,CCc1ccc(cc1)[S](N)(=O)=O,"hansch,c et al. (1995) ",1.31,8,11,1,2,1,0,0,0,0,0,,12,
4-sulfamoylbenzoic acid,C7H7N1O4S1,000138-41-0,N[S](=O)(=O)c1ccc(cc1)C(O)=O,"hansch,c et al. (1995) ",0.5,7,7,1,4,1,0,0,0,0,0,,13,
"n-[[4-(2-dimethylaminoethoxy)phenyl]methyl]-3,4,5-trimethoxybenzamide",C21H28N2O5,000138-56-7,COc1cc(cc(OC)c1OC)C(=O)NCc2ccc(OCCN(C)C)cc2,"el tayer,n et al. (1985) ",2.29,21,28,2,5,0,0,0,0,0,0,,28,
1-methyl-4-prop-1-en-2-ylcyclohexene,C10H16,005989-54-8,CC(=C)C1CCC(=CC1)C,"griffin,s et al. (1999) ",4.38,10,16,0,0,0,0,0,0,0,0,,10,
propazine,C9H16Cl1N5,000139-40-2,CC(C)Nc1nc(Cl)nc(NC(C)C)n1,"hansch,c et al. (1995) ",2.93,9,16,5,0,0,0,0,1,0,0,,15,
4-(phenoxy)aniline,C12H11N1O1,000139-59-3,Nc1ccc(Oc2ccccc2)cc1,"debnath,ak et al. (1992) ",2.96,12,11,1,1,0,0,0,0,0,0,,14,
4-(4-aminophenyl)sulfanylaniline,C12H12N2S1,000139-65-1,Nc1ccc(Sc2ccc(N)cc2)cc1,"hansch,c et al. (1995) ",2.18,12,12,2,0,1,0,0,0,0,0,,15,
phenylsulfanylbenzene,C12H10S1,000139-66-2,S(c1ccccc1)c2ccccc2,"hansch,c et al. (1995) ",4.45,12,10,0,0,1,0,0,0,0,0,,13,
"formamide, n-(3-chlorophenyl)-",C7H6Cl1N1O1,000139-71-9,Clc1cccc(NC=O)c1,"hansch,c et al. (1995) ",1.9,7,6,1,1,0,0,0,1,0,0,,10,
3-nonylphenol,C15H24O1,000139-84-4,CCCCCCCCCc1cccc(O)c1,"itokawa,h et al. (1989) ",5.61,15,24,0,1,0,0,0,0,0,0,,16,
"3,4-dihydroxybenzaldehyde",C7H6O3,000139-85-5,Oc1ccc(C=O)cc1O,"jin,lj et al. (1998) ",1.09,7,6,0,3,0,0,0,0,0,0,,10,
cinnamic acid,C9H8O2,000621-82-9,OC(=O)C=Cc1ccccc1,"hansch,c et al. (1995) ",2.13,9,8,0,2,0,0,0,0,0,0,,11,
phenylmethyl acetate,C9H10O2,000140-11-4,CC(=O)OCc1ccccc1,"hansch,c et al. (1995) ",1.96,9,10,0,2,0,0,0,0,0,0,,11,
2-phenylacetonitrile,C8H7N1,000140-29-4,N#CCc1ccccc1,"hansch,c et al. (1995) ",1.56,8,7,1,0,0,0,0,0,0,0,,9,
p-chlorophenylurea,C7H7Cl1N2O1,000140-38-5,O=C(N)Nc1ccc(Cl)cc1,"hansch,c et al. (1995) ",1.8,7,7,2,1,0,0,0,1,0,0,,11,
(4-methylphenyl) acetate,C9H10O2,000140-39-6,CC(=O)Oc1ccc(C)cc1,"hansch,c et al. (1995) ",2.11,9,10,0,2,0,0,0,0,0,0,,11,
"2-acetamido-n-hydroxy-1,3-thiazol-5-amine oxide",C5H5N3O3S1,000140-40-9,CC(=O)Nc1sc(cn1)[NH+](O)[O-],"hansch,c et al. (1995) ",1.3,5,5,3,3,1,0,0,0,0,0,,12,
"benzeneacetonitrile, 4-chloro-",C8H6Cl1N1,000140-53-4,Clc1ccc(CC#N)cc1,"hansch,c et al. (1995) ",2.47,8,6,1,0,0,0,0,1,0,0,,10,
"1,4-dinitrosopiperazine",C4H8N4O2,000140-79-4,O=NN1CCN(CC1)N=O,"hansch,c et al. (1995) ",-0.85,4,8,4,2,0,0,0,0,0,0,,10,
ethyl prop-2-enoate,C5H8O2,000140-88-5,CCOC(=O)C=C,"hansch,c et al. (1995) ",1.32,5,8,0,2,0,0,0,0,0,0,,7,
"pyridazine, 3,6-dichloro-",C4H2Cl2N2,000141-30-0,Clc1ccc(Cl)nn1,"li,l et al. (1999) ",0.7,4,2,2,0,0,0,0,2,0,0,,8,
butyl prop-2-enoate,C7H12O2,000141-32-2,CCCCOC(=O)C=C,"hansch,c et al. (1995) ",2.36,7,12,0,2,0,0,0,0,0,0,,9,
2-aminoethanol,C2H7N1O1,000141-43-5,NCCO,"hansch,c et al. (1995) ",-1.31,2,7,1,1,0,0,0,0,0,0,,4,
ethyl acetate,C4H8O2,000141-78-6,CCOC(C)=O,"hansch,c et al. (1995) ",0.73,4,8,0,2,0,0,0,0,0,0,,6,
propanedioic acid,C3H4O4,000141-82-2,OC(=O)CC(O)=O,"hansch,c et al. (1995) ",-0.81,3,4,0,4,0,0,0,0,0,0,,7,
"1,3-diethylbenzene",C10H14,000141-93-5,CCc1cccc(CC)c1,"sherblom,pm & eganhouse,rp (1988) ",4.57,10,14,0,0,0,0,0,0,0,0,,10,
ethyl 3-oxobutanoate,C6H10O3,000141-97-9,CCOC(=O)CC(C)=O,"catz,p & friend,d (1989) ",0.25,6,10,0,3,0,0,0,0,0,0,,9,
"n,n,n'-trimethylethane-1,2-diamine",C5H14N2,000142-25-6,CNCCN(C)C,"hansch,c et al. (1995) ",-0.2,5,14,2,0,0,0,0,0,0,0,,7,
"1,3-dichloropropane",C3H6Cl2,000142-28-9,ClCCCCl,"hansch,c et al. (1995) ",2,3,6,0,0,0,0,0,2,0,0,,5,
hexanoic acid,C6H12O2,000142-62-1,CCCCCC(O)=O,"hansch,c et al. (1995) ",1.92,6,12,0,2,0,0,0,0,0,0,,8,
oxane,C5H10O1,000142-68-7,C1CCOCC1,"hansch,c et al. (1995) ",0.95,5,10,0,1,0,0,0,0,0,0,,6,
heptane,C7H16,000142-82-5,CCCCCCC,"miller,mm et al. (1985) ",4.66,7,16,0,0,0,0,0,0,0,0,,7,
n-propylpropan-1-amine,C6H15N1,000142-84-7,CCCNCCC,"hansch,c et al. (1995) ",1.67,6,15,1,0,0,0,0,0,0,0,,7,
1-butoxybutane,C8H18O1,000142-96-1,CCCCOCCCC,"hansch,c et al. (1995) ",3.21,8,18,0,1,0,0,0,0,0,0,,9,
dodecanoic acid,C12H24O2,000143-07-7,CCCCCCCCCCCC(O)=O,sangster (1993) ,4.6,12,24,0,2,0,0,0,0,0,0,,14,
nonan-1-ol,C9H20O1,000143-08-8,CCCCCCCCCO,"tewari,yb et al. (1982) ",3.77,9,20,0,1,0,0,0,0,0,0,,10,
kepone,C10Cl10O1,000143-50-0,ClC1(Cl)C2(Cl)C3(Cl)C4(Cl)C(=O)C5(Cl)C3(Cl)C1(Cl)C5(Cl)C24Cl,"hansch,c et al. (1995) ",5.41,10,0,0,1,0,0,0,10,0,0,,21,
"4-(3,14-dihydroxy-10,13-dimethyl-1,2,3,4,5,6,7,8,9,11,12,15,16,17-tetradecahydrocyclopenta[a]phenanthren-17-yl)-5h-furan-2-one",C23H34O4,000143-62-4,CC12CCC(O)CC1CCC3C2CCC4(C)C(CCC34O)C5=CC(=O)OC5,"hansch,c et al. (1995) ",2.64,23,34,0,4,0,0,0,0,0,0,,27,
1-cyclohexyl-1-phenyl-3-piperidin-1-ylpropan-1-ol,C20H31N1O1,000144-11-6,OC(CCN1CCCCC1)(C2CCCCC2)c3ccccc3,sangster (1993) ,4.49,20,31,1,1,0,0,0,0,0,0,,22,
"2,2,4-trimethylpentane-1,3-diol",C8H18O2,000144-19-4,CC(C)C(O)C(C)(C)CO,chemicals inspection and testing institu (1992) ,1.24,8,18,0,2,0,0,0,0,0,0,,10,
2-iodoacetamide,C2H4I1N1O1,000144-48-9,NC(=O)CI,"hansch,c et al. (1995) ",-0.19,2,4,1,1,0,0,0,0,0,1,,5,
n-(4-aminophenyl)sulfonylacetamide,C8H10N2O3S1,000144-80-9,CC(=O)N[S](=O)(=O)c1ccc(N)cc1,"hansch,c et al. (1995) ",-0.96,8,10,2,3,1,0,0,0,0,0,,14,
"4-amino-n-(5-methyl-1,3,4-thiadiazol-2-yl)benzenesulfonamide",C9H10N4O2S2,000144-82-1,Cc1sc(N[S](=O)(=O)c2ccc(N)cc2)nn1,"hansch,c et al. (1995) ",0.54,9,10,4,2,2,0,0,0,0,0,,17,
4-amino-n-pyridin-2-ylbenzenesulfonamide,C11H11N3O2S1,000144-83-2,Nc1ccc(cc1)[S](=O)(=O)Nc2ccccn2,"hansch,c et al. (1995) ",0.35,11,11,3,2,1,0,0,0,0,0,,17,
"1-(3-hydroxy-10,13-dimethyl-2,3,4,7,8,9,11,12,14,15,16,17-dodecahydro-1h-cyclopenta[a]phenanthren-17-yl)ethanone",C21H32O2,000145-13-1,CC(=O)C1CCC2C3CC=C4CC(O)CCC4(C)C3CCC12C,"hansch,c et al. (1995) ",4.22,21,32,0,2,0,0,0,0,0,0,,23,
"7-oxabicyclo[2.2.1]heptane-5,6-dicarboxylic acid",C8H10O5,000145-73-3,OC(=O)C1C2CCC(O2)C1C(O)=O,"reinert,kh (1984) ",1.91,8,10,0,5,0,0,0,0,0,0,,13,
"n,n-dimethyl-3-[2-(trifluoromethyl)phenothiazin-10-yl]propan-1-amine",C18H19F3N2S1,000146-54-3,CN(C)CCCN1c2ccccc2Sc3ccc(cc13)C(F)(F)F,biobyte (1995) ,5.54,18,19,2,0,1,0,3,0,0,0,,24,
"2-(6-amino-2-fluoropurin-9-yl)-5-(hydroxymethyl)oxolane-3,4-diol",C10H12F1N5O4,not,Nc1nc(F)nc2n(cnc12)C3OC(CO)C(O)C3O,biobyte (1995) ,-0.8,10,12,5,4,0,0,1,0,0,0,,20,
"3,3-dimethyl-7-oxo-6-[2-(phenoxy)propanoylamino]-4-thia-1-azabicyclo[3.2.0]heptane-2-carboxylic acid",C17H20N2O5S1,000147-55-7,CC(Oc1ccccc1)C(=O)NC2C3SC(C)(C)C(N3C2=O)C(O)=O,"hansch,c et al. (1995) ",2.2,17,20,2,5,1,0,0,0,0,0,,25,
2-[(2-iodobenzoyl)amino]acetic acid,C9H8I1N1O3,000147-58-0,OC(=O)CNC(=O)c1ccccc1I,"laznicek,m & kvetina,j (1988) ",0.97,9,8,1,3,0,0,0,0,0,1,,14,
pyrrolidine-2-carboxylic acid,C5H9N1O2,000147-85-3,OC(=O)C1CCCN1,"hansch,c et al. (1995) ",-2.54,5,9,1,2,0,0,0,0,0,0,,8,
2-sulfanylbenzoic acid,C7H6O2S1,000147-93-3,OC(=O)c1ccccc1S,"hansch,c et al. (1995) ",2.39,7,6,0,2,1,0,0,0,0,0,,10,
quinolin-8-ol,C9H7N1O1,000578-67-6,Oc1cccc2cccnc12,"austin,rp et al. (1995) ",1.85,9,7,1,1,0,0,0,0,0,0,,11,
2-hydroxy-3-methoxybenzaldehyde,C8H8O3,000148-53-8,COc1cccc(C=O)c1O,"hansch,c et al. (1995) ",1.37,8,8,0,3,0,0,0,0,0,0,,11,
"2-(1,3-thiazol-4-yl)-1h-benzimidazole",C10H6N3S1,000148-79-8,[nH]1c2ccccc2nc1c3cscn3,"nielsen,ls et al. (1992) ",2.47,10,6,3,0,1,0,0,0,0,0,,14,
4-(bis(2-chloroethyl)amino)-l-phenylalanine,C13H18Cl2N2O2,000148-82-3,N[C@@H](Cc1ccc(cc1)N(CCCl)CCCl)C(O)=O,"sangster,j (1994); ph 7.4 ",-0.52,13,18,2,2,0,0,0,2,0,0,,19,
2-mercaptobenzothiazole,C7H5N1S2,000149-30-4,Sc1sc2ccccc2n1,tscats ,2.42,7,5,1,0,2,0,0,0,0,0,,10,
"butane-1,2,3,4-tetrol",C4H10O4,000149-32-6,OCC(O)C(O)CO,"hansch,c et al. (1995) ",-2.29,4,10,0,4,0,0,0,0,0,0,,8,
2-ethylhexanoic acid,C8H16O2,000149-57-5,CCCCC(CC)C(O)=O,sangster (1993) ,2.64,8,16,0,2,0,0,0,0,0,0,,10,
trimethoxymethane,C4H10O3,000149-73-5,COC(OC)OC,"hansch,c et al. (1995) ",0.25,4,10,0,3,0,0,0,0,0,0,,7,
"3,4,5-trihydroxybenzoic acid",C7H6O5,000149-91-7,OC(=O)c1cc(O)c(O)c(O)c1,"hansch,c et al. (1995) ",0.7,7,6,0,5,0,0,0,0,0,0,,12,
4-aminobenzoic acid,C7H7N1O2,000150-13-0,Nc1ccc(cc1)C(O)=O,"hansch,c et al. (1995) ",0.83,7,7,1,2,0,0,0,0,0,0,,10,
3-methoxyphenol,C7H8O2,000150-19-6,COc1cccc(O)c1,"hansch,c et al. (1995) ",1.34,7,8,0,2,0,0,0,0,0,0,,9,
monuron,C9H11Cl1N2O1,000150-68-5,CN(C)C(=O)Nc1ccc(Cl)cc1,"hansch,c et al. (1995) ",1.94,9,11,2,1,0,0,0,1,0,0,,13,
4-methoxyphenol,C7H8O2,000150-76-5,COc1ccc(O)cc1,"hansch,c et al. (1995) ",1.58,7,8,0,2,0,0,0,0,0,0,,9,
"1,4-dimethoxybenzene",C8H10O2,000150-78-7,COc1ccc(OC)cc1,"dunn,wj et al. (1983) ",2.04,8,10,0,2,0,0,0,0,0,0,,10,
"1,3-dimethoxybenzene",C8H10O2,000151-10-0,COc1cccc(OC)c1,"nakagawa,y et al. (1992) ",2.21,8,10,0,2,0,0,0,0,0,0,,10,
halothane,C2H1Br1Cl1F3,000151-67-7,FC(F)(F)C(Cl)Br,"hansch,c et al. (1995) ",2.3,2,1,0,0,0,0,3,1,1,0,,7,
levallorphan,C19H26N1O1,000152-02-3,Oc1ccc2C[C@@H]3[C@@H]4CCCC[C@]4(CCN3CC=C)c2c1,"hansch,c et al. (1995) ",3.48,19,26,1,1,0,0,0,0,0,0,,21,
4-amino-n-(3-methoxypyrazin-2-yl)benzenesulfonamide,C11H12N4O3S1,000152-47-6,COc1nccnc1N[S](=O)(=O)c2ccc(N)cc2,"hansch,c et al. (1995) ",0.7,11,12,4,3,1,0,0,0,0,0,,19,
"17-hydroxy-17-(2-hydroxyacetyl)-10,13-dimethyl-2,6,7,8,9,11,12,14,15,16-decahydro-1h-cyclopenta[a]phenanthren-3-one",C21H30O4,000152-58-9,CC12CCC(=O)C=C1CCC3C2CCC4(C)C3CCC4(O)C(=O)CO,sangster (1994) ,3.08,21,30,0,4,0,0,0,0,0,0,,25,
3-(acetyloxymethyl)-8-oxo-7-[(2-thiophen-2-ylacetyl)amino]-5-thia-1-azabicyclo[4.2.0]oct-2-ene-2-carboxylic acid,C16H16N2O6S2,000153-61-7,CC(=O)OCC1=C(N2C(SC1)C(NC(=O)Cc3sccc3)C2=O)C(O)=O,"hansch,c et al. (1995) ",-0.41,16,16,2,6,2,0,0,0,0,0,,26,
9h-fluoren-2-amine,C13H11N1,000153-78-6,Nc1ccc2c(Cc3ccccc23)c1,"debnath,ak et al. (1992) ",3.14,13,11,1,0,0,0,0,0,0,0,,14,
"n-[2-hydroxy-1-(3,4,5-trihydroxy-6-methylsulfanyloxan-2-yl)propyl]-1-methyl-4-propylpyrrolidine-2-carboxamide",C18H34N2O6S1,000154-21-2,CCCC1CC(N(C)C1)C(=O)NC(C(C)O)C2OC(SC)C(O)C(O)C2O,"hansch,c et al. (1995) ",0.2,18,34,2,6,1,0,0,0,0,0,,27,
"2-(3,4-dihydroxyphenyl)chroman-3,5,7-triol",C15H14O6,000154-23-4,OC1Cc2c(O)cc(O)cc2OC1c3ccc(O)c(O)c3,"perrissoud,d & testa,b (1986) ",0.51,15,14,0,6,0,0,0,0,0,0,,21,
"1,3-bis(2-chloroet)-1-nitrosourea",C5H9Cl2N3O2,000154-93-8,N(CCCl)(N=O)C(=O)NCCCl,"hansch,c et al. (1995) ",1.53,5,9,3,2,0,0,0,2,0,0,,12,
2-(4-hydroxyphenyl)acetic acid,C8H8O3,000156-38-7,OC(=O)Cc1ccc(O)cc1,"hansch,c et al. (1995) ",0.75,8,8,0,3,0,0,0,0,0,0,,11,
4-ethoxyaniline,C8H11N1O1,000156-43-4,CCOc1ccc(N)cc1,"hansch,c et al. (1995) ",1.24,8,11,1,1,0,0,0,0,0,0,,10,
"1,2-dichloroethylene",C2H2Cl2,000540-59-0,ClC=CCl,"hansch,c et al. (1995); isomer avg. ",2,2,2,0,0,0,0,0,2,0,0,,4,
3-aminopropan-1-ol,C3H9N1O1,000156-87-6,NCCCO,"hansch,c et al. (1995) ",-1.12,3,9,1,1,0,0,0,0,0,0,,5,
191-30-0,C24H14,000191-30-0,c1ccc2c(c1)cc3ccc4cccc5c6ccccc6c2c3c45,"de voogt,p et al. (1990) ",7.71,24,14,0,0,0,0,0,0,0,0,,24,
191-68-4,C26H16,000191-68-4,c1ccc2c(c1)c3ccccc3c4c5ccccc5c6ccccc6c24,"de voogt,p et al. (1990) ",8.39,26,16,0,0,0,0,0,0,0,0,,26,
192-97-2,C20H12,000192-97-2,c1ccc2c(c1)c3cccc4ccc5cccc2c5c34,"de voogt,p et al. (1990) ",6.44,20,12,0,0,0,0,0,0,0,0,,20,
perylene,C20H12,000198-55-0,c1cc2cccc3c4cccc5cccc(c(c1)c23)c45,sangster (1993) ,6.25,20,12,0,0,0,0,0,0,0,0,,20,
"naphtho[2,1-b][1]benzothiole",C16H10S1,000205-43-6,s1c2ccccc2c3c1ccc4ccccc34,"andersson,jt & schrader,w (1999) ",5.19,16,10,0,0,1,0,0,0,0,0,,17,
benzo[k]fluoranthene,C20H12,000207-08-9,c1ccc2cc3c4cccc5cccc(c3cc2c1)c45,"de maagd,pg et al. (1998) ",6.11,20,12,0,0,0,0,0,0,0,0,,20,
acenaphthylene,C12H8,000208-96-8,c1cc2cccc3C=Cc(c1)c23,"hansch,c et al. (1995) ",3.94,12,8,0,0,0,0,0,0,0,0,,12,
214-17-5,C22H14,000224-41-9,c1ccc2cc3c(ccc4c5ccccc5ccc34)cc2c1,"helweg,c et al. (1997a) ",6.54,22,14,0,0,0,0,0,0,0,0,,22,
414-29-9,C22H14,000215-58-7,c1ccc2cc3c4ccccc4c5ccccc5c3cc2c1,"helweg,c et al. (1997a) ",6.41,22,14,0,0,0,0,0,0,0,0,,22,
215-62-3,C21H13N1,000215-62-3,c1ccc2nc3c4ccccc4c5ccccc5c3cc2c1,"helweg,c et al. (1997) ",5.66,21,13,1,0,0,0,0,0,0,0,,22,
triphenylene,C18H12,000217-59-4,c1ccc2c(c1)c3ccccc3c4ccccc24,"wang,l et al. (1986) ",5.49,18,12,0,0,0,0,0,0,0,0,,18,
chrysene,C18H12,000218-01-9,c1ccc2c(c1)ccc3c4ccccc4ccc23,"de maagd,pg et al. (1998) ",5.81,18,12,0,0,0,0,0,0,0,0,,18,
"naphtho[2,1-e][1]benzothiole",C16H10S1,000219-25-0,s1ccc2c1ccc3c4ccccc4ccc23,"andersson,jt & schrader,w (1999) ",5.35,16,10,0,0,1,0,0,0,0,0,,17,
224-41-9,C22H14,000224-41-9,c1ccc2c(c1)ccc3cc4ccc5ccccc5c4cc23,"helweg,c et al. (1997a) ",6.54,22,14,0,0,0,0,0,0,0,0,,22,
224-42-0,C21H13N1,000226-36-8,c1ccc2c(c1)ccc3nc4ccc5ccccc5c4cc23,"helweg,c et al. (1997a) ",5.73,21,13,1,0,0,0,0,0,0,0,,22,
benzo[a]acridine,C17H11N1,000225-11-6,c1ccc2nc3ccc4ccccc4c3cc2c1,"helweg,c et al. (1997a) ",4.48,17,11,1,0,0,0,0,0,0,0,,18,
226-36-8,C21H13N1,000226-36-8,c1ccc2c(c1)ccc3nc4c(ccc5ccccc45)cc23,"helweg,c et al. (1997a) ",5.73,21,13,1,0,0,0,0,0,0,0,,22,
226-88-0,C22H14,000226-88-0,c1ccc2cc3cc4c(ccc5ccccc45)cc3cc2c1,"wang,l et al. (1986) ",6.81,22,14,0,0,0,0,0,0,0,0,,22,
phenanthridine,C13H9N1,000229-87-8,c1ccc2c(c1)cnc3ccccc23,"hansch,c et al. (1995) ",3.48,13,9,1,0,0,0,0,0,0,0,,14,
"4,7-phenanthroline",C12H8N2,000230-46-6,c1cnc2ccc3ncccc3c2c1,"hansch,c et al. (1995) ",2.51,12,8,2,0,0,0,0,0,0,0,,14,
benzo[c]cinnoline,C12H8N2,000230-17-1,c1ccc2c(c1)nnc3ccccc23,"hansch,c et al. (1995) ",2.4,12,8,2,0,0,0,0,0,0,0,,14,
benzo[h]quinoline,C13H9N1,000230-27-3,c1ccc2c(c1)ccc3cccnc23,sangster (1993) ,3.43,13,9,1,0,0,0,0,0,0,0,,14,
benzo[e][1]benzothiole,C12H8S1,000234-41-3,s1ccc2c1ccc3ccccc23,"andersson,jt & schrader,w (1999) ",4.55,12,8,0,0,1,0,0,0,0,0,,13,
benzo[g][1]benzothiole,C12H8S1,000234-41-3,s1ccc2ccc3ccccc3c12,"andersson,jt & schrader,w (1999) ",4.55,12,8,0,0,1,0,0,0,0,0,,13,
11h-benzo[a]fluorene,C17H12,000238-84-6,C1c2ccccc2c3ccc4ccccc4c13,sangster (1993) ,5.4,17,12,0,0,0,0,0,0,0,0,,17,
11h-benzo[b]fluorene,C17H12,000243-17-4,C1c2ccccc2c3cc4ccccc4cc13,"wang,l et al. (1986) ",5.77,17,12,0,0,0,0,0,0,0,0,,17,
"naphtho[3,2-b][1]benzoxole",C16H10O1,000243-42-5,o1c2ccccc2c3cc4ccccc4cc13,"de voogt,p et al. (1990) ",5.05,16,10,0,1,0,0,0,0,0,0,,17,
"naphtho[3,2-b][1]benzothiole",C16H10S1,000243-46-9,s1c2ccccc2c3cc4ccccc4cc13,"de voogt,p et al. (1990) ",5.34,16,10,0,0,1,0,0,0,0,0,,17,
"5h-indeno[3,2-b]pyridine",C12H9N1,000244-99-5,C1c2ccccc2c3ncccc13,"helweg,c et al. (1997a) ",2.96,12,9,1,0,0,0,0,0,0,0,,13,
phthalazine,C8H6N2,000253-52-1,c1ccc2cnncc2c1,"hansch,c et al. (1995) ",0.57,8,6,2,0,0,0,0,0,0,0,,10,
cinnoline,C8H6N2,000253-66-7,c1ccc2nnccc2c1,"hansch,c et al. (1995) ",0.93,8,6,2,0,0,0,0,0,0,0,,10,
quinazoline,C8H6N2,000253-82-7,c1ccc2ncncc2c1,"hansch,c et al. (1995) ",1,8,6,2,0,0,0,0,0,0,0,,10,
acridine,C13H9N1,000260-94-6,c1ccc2nc3ccccc3cc2c1,"hansch,c et al. (1995) ",3.4,13,9,1,0,0,0,0,0,0,0,,14,
oxanthrene,C12H8O2,000262-12-4,O1c2ccccc2Oc3ccccc13,"shiu,wy et al. (1988) ",4.3,12,8,0,2,0,0,0,0,0,0,,14,
phenoxathiine,C12H8O1S1,000262-20-4,O1c2ccccc2Sc3ccccc13,"hansch,c et al. (1995) ",4.54,12,8,0,1,1,0,0,0,0,0,,14,
benzo[f][1]benzothiole,C12H8S1,000268-77-9,s1ccc2cc3ccccc3cc12,"andersson,jt & schrader,w (1999) ",4.5,12,8,0,0,1,0,0,0,0,0,,13,
"thieno[2,3-c]pyridine",C7H5N1S1,000271-06-7,s1ccc2ccncc12,"hansch,c et al. (1995) ",1.74,7,5,1,0,1,0,0,0,0,0,,9,
1h-indazole,C7H6N2,000271-44-3,[nH]1ncc2ccccc12,"hansch,c et al. (1995) ",1.77,7,6,2,0,0,0,0,0,0,0,,9,
1-benzofuran,C8H6O1,000271-89-6,o1ccc2ccccc12,"hansch,c et al. (1995) ",2.67,8,6,0,1,0,0,0,0,0,0,,9,
"1,2-benzoxazole",C7H5N1O1,000271-95-4,o1ncc2ccccc12,"hansch,c et al. (1995) ",1.63,7,5,1,1,0,0,0,0,0,0,,9,
"3h-imidazo[5,4-c]pyridine",C6H5N3,000272-97-9,[nH]1cnc2ccncc12,"hansch,c et al. (1995) ",0.18,6,5,3,0,0,0,0,0,0,0,,9,
"2,1,3-benzoxadiazole",C6H4N2O1,000273-09-6,o1nc2ccccc2n1,"calvino,r et al. (1992) ",1.69,6,4,2,1,0,0,0,0,0,0,,9,
"2,1,3-benzothiadiazole",C6H4N2S1,000273-13-2,s1nc2ccccc2n1,"calvino,r et al. (1992) ",1.98,6,4,2,0,1,0,0,0,0,0,,9,
"1,3-benzoxazole",C7H5N1O1,000273-53-0,o1cnc2ccccc12,"hansch,c et al. (1995) ",1.59,7,5,1,1,0,0,0,0,0,0,,9,
"1,3-benzodioxole",C7H6O2,000274-09-9,C1Oc2ccccc2O1,"hansch,c et al. (1995) ",2.08,7,6,0,2,0,0,0,0,0,0,,9,
indolizine,C8H7N1,000274-40-8,c1ccc2cccn2c1,"hansch,c et al. (1995) ",2.49,8,7,1,0,0,0,0,0,0,0,,9,
"1h-pyrrolo[2,3-b]pyridine",C7H6N2,000274-55-5,[nH]1ccc2cccnc12,"hansch,c et al. (1995) ",1.82,7,6,2,0,0,0,0,0,0,0,,9,
"tetrazolo[1,5-a]pyridine",C5H4N4,000274-87-3,c1ccc2nnnn2c1,pomona (1987) ,-0.09,5,4,4,0,0,0,0,0,0,0,,9,
azulene,C10H9,000275-51-4,c1ccc2cccc2cc1,"hansch,c et al. (1995) ",3.2,10,9,0,0,0,0,0,0,0,0,,10,
278-06-8,C7H8,000278-06-8,C1C2C3C2C4C1C34,"lodge,kb (1999) ",2.9,7,8,0,0,0,0,0,0,0,0,,7,
bicyclo[2.2.1]heptane,C7H12,000279-23-2,C1CC2CCC1C2,"lodge,kb (1999) ",3.78,7,12,0,0,0,0,0,0,0,0,,7,
adamantane,C10H16,000281-23-2,C1C2CC3CC1CC(C2)C3,sangster (1994) ,4.24,10,16,0,0,0,0,0,0,0,0,,10,
cyclopentane,C5H10,000287-92-3,C1CCCC1,"hansch,c et al. (1995) ",3,5,10,0,0,0,0,0,0,0,0,,5,
1h-pyrazole,C3H4N2,000288-13-1,[nH]1cccn1,"hansch,c et al. (1995) ",0.26,3,4,2,0,0,0,0,0,0,0,,5,
"1,2-oxazole",C3H3N1O1,000288-14-2,o1cccn1,"hansch,c et al. (1995) ",0.08,3,3,1,1,0,0,0,0,0,0,,5,
1h-imidazole,C3H4N2,000288-32-4,[nH]1ccnc1,"hansch,c et al. (1995) ",-0.08,3,4,2,0,0,0,0,0,0,0,,5,
"2h-1,2,3-triazole",C2H3N3,000288-36-8,[nH]1nccn1,"hansch,c et al. (1995) ",-0.29,2,3,3,0,0,0,0,0,0,0,,5,
"1,2,5-oxadiazole",C2H2N2O1,000288-37-9,o1nccn1,"calvino,r et al. (1992) ",0.16,2,2,2,1,0,0,0,0,0,0,,5,
"1,3-oxazole",C3H3N1O1,000288-42-6,o1ccnc1,"hansch,c et al. (1995) ",0.12,3,3,1,1,0,0,0,0,0,0,,5,
"1,3-thiazole",C3H3N1S1,000288-47-1,s1ccnc1,"hansch,c et al. (1995) ",0.44,3,3,1,0,1,0,0,0,0,0,,5,
"1h-1,2,4-triazole",C2H3N3,000288-88-0,[nH]1cncn1,"hansch,c et al. (1995) ",-0.58,2,3,3,0,0,0,0,0,0,0,,5,
2h-tetrazole,C1H2N4,000288-94-8,[nH]1ncnn1,"hansch,c et al. (1995) ",-0.6,1,2,4,0,0,0,0,0,0,0,,5,
pyridazine,C4H4N2,000289-80-5,c1ccnnc1,"hansch,c et al. (1995) ",-0.72,4,4,2,0,0,0,0,0,0,0,,6,
pyrimidine,C4H4N2,000289-95-2,c1cncnc1,"hansch,c et al. (1995) ",-0.4,4,4,2,0,0,0,0,0,0,0,,6,
pyrazine,C4H4N2,000290-37-9,c1cnccn1,"hansch,c et al. (1995) ",-0.26,4,4,2,0,0,0,0,0,0,0,,6,
"1,3,5-triazine",C3H3N3,000290-87-9,c1ncncn1,"wei,l et al. (1999) ",0.12,3,3,3,0,0,0,0,0,0,0,,6,
cycloheptane,C7H14,000291-64-5,C1CCCCCC1,"hansch,c et al. (1995) ",4,7,14,0,0,0,0,0,0,0,0,,7,
292-64-8,C8H16,000292-64-8,C1CCCCCCC1,sangster (1993) ,4.45,8,16,0,0,0,0,0,0,0,0,,8,
"1,4,7,10-tetraoxacyclododecane",C8H16O4,000294-93-9,C1COCCOCCOCCO1,"hansch,c et al. (1995) ",-0.04,8,16,0,4,0,0,0,0,0,0,,12,
dimethoxy-(4-nitrophenoxy)-sulfanylidenephosphorane,C8H10N1O5P1S1,000298-00-0,CO[P](=S)(OC)Oc1ccc(cc1)[N+]([O-])=O,"hansch,c et al. (1995) ",2.86,8,10,1,5,1,1,0,0,0,0,,16,
mevinphos,C7H13O6P1,007786-34-7,COC(=O)\C=C(/C)O[P](=O)(OC)OC,"tomlin,c (1994) ",0.13,7,13,0,6,0,1,0,0,0,0,,14,
diethoxy-(ethylsulfanylmethylsulfanyl)-sulfanylidenephosphorane,C7H17O2P1S3,000298-02-2,CCO[P](=S)(OCC)SCSCC,"hansch,c et al. (1995) ",3.56,7,17,0,2,3,1,0,0,0,0,,13,
diethoxy-(2-ethylsulfanylethylsulfanyl)-sulfanylidenephosphorane,C8H19O2P1S3,000298-04-4,CCO[P](=S)(OCC)SCCSCC,"hansch,c et al. (1995) ",4.02,8,19,0,2,3,1,0,0,0,0,,14,
benzo[b][1]benzazepine-11-carboxamide,C15H12N2O1,000298-46-4,NC(=O)C1=Cc2ccccc2Nc3ccccc13,"dal pozzo,a et al. (1989) ",2.45,15,12,2,1,0,0,0,0,0,0,,18,
cinnarizine,C26H28N2,000298-57-7,C1CN(CCN1C\C=C\c2ccccc2)C(c3ccccc3)c4ccccc4,biobyte (1995) ,5.77,26,28,2,0,0,0,0,0,0,0,,28,