Names,Formula,CAS No,SMILES,Reference,Exp logp,C,H,N,O,S,P,F,Cl,Br,I,,,
"5,6-dihydro-4h-cyclopenta[d]dithiole-3-thione",C6H6S3,014085-33-7,S=C1SSC2=C1CCC2,"bona,m et al. (1995) ",2.53,6,6,0,0,3,0,0,0,0,0,,9,
"tetrahydro-1,2-benzodithiole-3-thione",C7H8S3,014085-34-8,S=C1SSC2=CCCCC12,"bona,m et al. (1995) ",3.1,7,8,0,0,3,0,0,0,0,0,,10,
proclonol,C16H14Cl2O1,014088-71-2,OC(C1CC1)(c2ccc(Cl)cc2)c3ccc(Cl)cc3,"hansch,c et al. (1995) ",5.5,16,14,0,1,0,0,0,2,0,0,,19,
"nonane-4,6-dione",C9H16O2,014090-88-1,CCCC(=O)CC(=O)CCC,"hansch,c et al. (1995) ",2.23,9,16,0,2,0,0,0,0,0,0,,11,
14098-20-5,C11H13N1,072597-35-4,NC1C2CCC1c3ccccc23,"hansch,c & leo,aj (1985) ",2.08,11,13,1,0,0,0,0,0,0,0,,12,
"2,5,8,11,14,17-hexaoxabicyclo[16.4.0]docosa-1(22),18,20-triene",C16H24O6,014098-24-9,C1COCCOCCOc2ccccc2OCCOCCO1,"stolwijk,tb et al. (1989) ",0.58,16,24,0,6,0,0,0,0,0,0,,22,
"2,5,8,11,14-pentaoxabicyclo[13.4.0]nonadeca-1(19),15,17-triene",C14H20O5,014098-44-3,C1COCCOc2ccccc2OCCOCCO1,"stolwijk,tb et al. (1989) ",0.91,14,20,0,5,0,0,0,0,0,0,,19,
phenyl-pyridin-2-ylmethanol,C12H11N1O1,014159-57-0,OC(c1ccccc1)c2ccccn2,"hansch,c et al. (1995) ",1.52,12,11,1,1,0,0,0,0,0,0,,14,
14174-09-5,C24H32O8,014174-09-5,C1COCCOc2ccccc2OCCOCCOCCOc3ccccc3OCCO1,"stolwijk,tb et al. (1989) ",2.11,24,32,0,8,0,0,0,0,0,0,,32,
66105-26-8,C20H24O6,014187-32-7,C1COc2ccccc2OCCOCCOc3ccccc3OCCO1,"stolwijk,tb et al. (1989) ",2.2,20,24,0,6,0,0,0,0,0,0,,26,
1-phenyl-5-chlorotetrazole,C7H5Cl1N4,014210-25-4,Clc1nnnn1c2ccccc2,"hansch,c et al. (1995) ",1.48,7,5,4,0,0,0,0,1,0,0,,12,
"3-[4-(4-methoxyphenoxy)phenyl]-1,1-dimethylurea",C16H18N2O3,014214-32-5,COc1ccc(Oc2ccc(NC(=O)N(C)C)cc2)cc1,"liu,j & qian,c (1995) ",2.54,16,18,2,3,0,0,0,0,0,0,,21,
diethoxy-(4-methylsulfonylphenoxy)-sulfanylidenephosphorane,C11H17O5P1S2,014255-72-2,CCO[P](=S)(OCC)Oc1ccc(cc1)[S](C)(=O)=O,"hansch,c & leo,aj (1985) ",2.56,11,17,0,5,2,1,0,0,0,0,,19,
14262-60-3,C18H20O5,not,C1COc2ccccc2OCCOc3ccccc3OCCO1,biobyte (1995) ,2.21,18,20,0,5,0,0,0,0,0,0,,23,
xipamide,C15H15Cl1N2O4S1,014293-44-8,Cc1cccc(C)c1NC(=O)c2cc(c(Cl)cc2O)[S](N)(=O)=O,"berthod,a et al. (1999) ",2.19,15,15,2,4,1,0,0,1,0,0,,23,
piperidine-1-carbothioamide,C6H12N2S1,014294-09-8,NC(=S)N1CCCCC1,"hansch,c et al. (1995) ",0.73,6,12,2,0,1,0,0,0,0,0,,9,
dicyclopropylmethanol,C7H12O1,014300-33-5,OC(C1CC1)C2CC2,"lodge,kb (1999) ",1.07,7,12,0,1,0,0,0,0,0,0,,8,
heptyl 4-aminobenzoate,C14H21N1O2,014309-40-1,CCCCCCCOC(=O)c1ccc(N)cc1,"liang,wq & lin,w (1992) ",4.5,14,21,1,2,0,0,0,0,0,0,,17,
octyl 4-aminobenzoate,C15H23N1O2,014309-41-2,CCCCCCCCOC(=O)c1ccc(N)cc1,"liang,wq & lin,w (1992) ",5.02,15,23,1,2,0,0,0,0,0,0,,18,
4-methyl-1-benzothiophene,C9H8S1,014315-15-2,Cc1cccc2sccc12,"andersson,jt & schrader,w (1999) ",3.85,9,8,0,0,1,0,0,0,0,0,,10,
7-methyl-1-benzothiophene,C9H8S1,014315-15-2,Cc1cccc2ccsc12,"andersson,jt & schrader,w (1999) ",3.85,9,8,0,0,1,0,0,0,0,0,,10,
n-(phenylmethyl)ethanamine,C9H13N1,014321-27-8,CCNCc1ccccc1,sangster (1993) ,1.82,9,13,1,0,0,0,0,0,0,0,,10,
2-propylpyridine-4-carbohydrazide,C9H13N3O1,014339-54-9,CCCc1cc(ccn1)C(=O)NN,"hansch,c et al. (1995) ",0.63,9,13,3,1,0,0,0,0,0,0,,13,
14342-36-0,C12H15N1,015537-20-9,NC1CC2CCC1c3ccccc23,"hansch,c & leo,aj (1985) ",2.32,12,15,1,0,0,0,0,0,0,0,,13,
2-(4-butylphenyl)acetic acid,C12H16O2,014377-19-6,CCCCc1ccc(CC(O)=O)cc1,sangster (1993) ,3.25,12,16,0,2,0,0,0,0,0,0,,14,
2-(4-pentylphenyl)acetic acid,C13H18O2,014377-21-0,CCCCCc1ccc(CC(O)=O)cc1,sangster (1993) ,3.75,13,18,0,2,0,0,0,0,0,0,,15,
(4-hexyl-phenyl)-acetic acid,C14H20O2,014377-22-1,CCCCCCc1ccc(CC(O)=O)cc1,sangster (1993) ,4.25,14,20,0,2,0,0,0,0,0,0,,16,
2-(4-ethylphenyl)acetic acid,C10H12O2,014387-10-1,CCc1ccc(CC(O)=O)cc1,sangster (1993) ,2.25,10,12,0,2,0,0,0,0,0,0,,12,
"n,n-dimethylbenzenesulfonamide",C8H11N1O2S1,014417-01-7,CN(C)[S](=O)(=O)c1ccccc1,"hansch,c & leo,aj (1985) ",1.35,8,11,1,2,1,0,0,0,0,0,,12,
p-acetyl amphenicol,C13H15Cl2N1O4,014433-36-4,CC(=O)c1ccc(C(O)C(NC(=O)C(Cl)Cl)CO)cc1,"hansch,c et al. (1995) ",0.57,13,15,1,4,0,0,0,2,0,0,,20,
"bicyclo[2.2.1]heptane-5,6-diol",C7H12O2,016329-23-0,OC1C2CCC(C2)C1O,"lodge,kb (1999) ",0.47,7,12,0,2,0,0,0,0,0,0,,9,
"1-furan-2-yl-n,n-dimethylmethanamine",C7H11N1O1,014496-34-5,CN(C)Cc1occc1,"hansch,c & leo,aj (1985) ",1.19,7,11,1,1,0,0,0,0,0,0,,9,
2-chloropyrazine,C4H3Cl1N2,014508-49-7,Clc1cnccn1,"yamagami,c et al. (1990a) ",0.7,4,3,2,0,0,0,0,1,0,0,,7,
2-ethoxypyridine,C7H9N1O1,014529-53-4,CCOc1ccccn1,"yamagami,c et al. (1990a) ",1.81,7,9,1,1,0,0,0,0,0,0,,9,
(4-methylphenyl)-pyridin-4-ylmethanone,C13H11N1O1,014548-30-2,Cc1ccc(cc1)C(=O)c2ccncc2,"hansch,c & leo,aj (1985) ",2.51,13,11,1,1,0,0,0,0,0,0,,15,
phenyl-pyridin-4-ylmethanone,C12H9N1O1,014548-46-0,O=C(c1ccccc1)c2ccncc2,"hansch,c et al. (1995) ",1.98,12,9,1,1,0,0,0,0,0,0,,14,
(4-methoxyphenyl)-pyridin-4-ylmethanone,C13H11N1O2,014548-47-1,COc1ccc(cc1)C(=O)c2ccncc2,"hansch,c & leo,aj (1985) ",1.94,13,11,1,2,0,0,0,0,0,0,,16,
bupranolol,C14H22Cl1N1O2,014556-46-8,Cc1ccc(Cl)c(OCC(O)CNC(C)(C)C)c1,biobyte (1995) ,2.97,14,22,1,2,0,0,0,1,0,0,,18,
124-benzthiadiazin-1-o2-3-me-6-cl,C8H7Cl1N2O2S1,014559-54-7,Clc1ccc2c(NC(C)=NS2(=O)=O)c1,"hansch & leo, 1985",1.37,8,7,2,2,1,0,0,1,0,0,,14,
124-benzthiadiazin-1-o2-3-et-6-cl,C9H9Cl1N2O2S1,014559-55-8,CCC1NS(=O)(=O)c2c(cc(Cl)cc2)N=1,"hansch,c & leo,aj (1985) ",1.61,9,9,2,2,1,0,0,1,0,0,,15,
n-methyl-n-(1-phenylpropan-2-yl)prop-2-yn-1-amine,C13H17N1,not,CC(Cc1ccccc1)N(C)CC#C,daylight (1999) ,2.9,13,17,1,0,0,0,0,0,0,0,,14,
5-(phenylmethyl)dithiole-3-thione,C10H8S3,014659-10-0,S=C1SSC(=C1)Cc2ccccc2,"bona,m et al. (1995) ",3.43,10,8,0,0,3,0,0,0,0,0,,13,
"2,3,5-trimethylpyrazine",C7H10N2,014667-55-1,Cc1cnc(C)c(C)n1,"yamagami,c et al. (1991) ",0.95,7,10,2,0,0,0,0,0,0,0,,9,
"anisole, o-dichloroacetylamino-",C9H9Cl2N1O2,014676-37-0,ClC(Cl)C(=O)Nc1ccccc1OC,"hansch,c & leo,aj (1985) ",2.41,9,9,1,2,0,0,0,2,0,0,,14,
"1,2-oxazol-5-amine",C3H4N2O1,014678-05-8,Nc1oncc1,biobyte starlist (2009) ,-0.47,3,4,2,1,0,0,0,0,0,0,,6,
"1-hydroxy-2,2,6,6-tetramethylpiperidin-4-amine",C9H20N2O1,014691-88-4,CC1(C)CC(N)CC(C)(C)N1O,sangster (1993) ,0.56,9,20,2,1,0,0,0,0,0,0,,12,
"n,n-dimethylfuran-3-carboxamide",C7H9N1O2,014757-80-3,CN(C)C(=O)c1cocc1,"hansch,c & leo,aj (1985) ",0.24,7,9,1,2,0,0,0,0,0,0,,10,
"6-phenyl-2,3,5,6-tetrahydroimidazo[2,1-b][1,3]thiazole",C11H13N2S1,014769-73-4,C1CN2CC(N=C2S1)c3ccccc3,biobyte (1995) ,1.84,11,13,2,0,1,0,0,0,0,0,,14,
3-ethoxypyridine,C7H9N1O1,014773-50-3,CCOc1cccnc1,"hansch,c et al. (1995) ",1.44,7,9,1,1,0,0,0,0,0,0,,9,
methyl n-(4-methoxyphenyl)carbamate,C9H11N1O3,014803-72-6,COC(=O)Nc1ccc(OC)cc1,"takahashi,k et al. (1988) ",1.73,9,11,1,3,0,0,0,0,0,0,,13,
methyl n-(2-methoxyphenyl)carbamate,C9H11N1O3,014803-73-7,COC(=O)Nc1ccccc1OC,"takahashi,k et al. (1988) ",1.84,9,11,1,3,0,0,0,0,0,0,,13,
1-ethyl-2-methoxybenzene,C9H12O1,014804-32-1,CCc1ccccc1OC,"nakagawa,y et al. (1992) ",3.18,9,12,0,1,0,0,0,0,0,0,,10,
"2-pyridinecarboxamide,nn-dimethyl",C8H10N2O1,014805-91-5,CN(C)C(=O)c1ncccc1,"yamagami,c et al. (1990a) ",-0.45,8,10,2,1,0,0,0,0,0,0,,11,
phoxim,C12H15N2O3P1S1,014816-18-3,CCO[P](=S)(OCC)O\N=C(C#N)\c1ccccc1,"hansch,c et al. (1995) ",4.39,12,15,2,3,1,1,0,0,0,0,,19,
2-amino-1-phenylpropan-1-ol,C9H13N1O1,036393-56-3,CC(N)C(O)c1ccccc1,sangster (1994) ,0.83,9,13,1,1,0,0,0,0,0,0,,11,
4-methoxy-1h-pyrazole,C4H6N2O1,014884-01-6,COc1c[nH]nc1,"hansch,c & leo,aj (1985) ",0.37,4,6,2,1,0,0,0,0,0,0,,7,
4-propan-2-yloxy-1h-pyrazole,C6H10N2O1,014884-03-8,CC(C)Oc1c[nH]nc1,"hansch,c & leo,aj (1985) ",1.13,6,10,2,1,0,0,0,0,0,0,,9,
1-methyl-5-nitro-2-propan-2-ylimidazole,C7H11N3O2,014885-29-1,CC(C)c1ncc(n1C)[N+]([O-])=O,"kosanovic,dd et al. (1988) ",1.36,7,11,3,2,0,0,0,0,0,0,,12,
1-oxidopyridin-1-ium-4-carbonitrile,C6H4N2O1,014906-59-3,[O-][n+]1ccc(cc1)C#N,"hansch,c & leo,aj (1985) ",-0.94,6,4,2,1,0,0,0,0,0,0,,9,
1-p-methoxybenzoyl-1-methylhydrazine,C9H12N2O2,014908-48-6,COc1ccc(cc1)C(=O)N(C)N,"britto,mm et al. (1999) ",1,9,12,2,2,0,0,0,0,0,0,,13,
"methyl 2,6-dimethylbenzoate",C10H12O2,014920-81-1,COC(=O)c1c(C)cccc1C,"sotomatsu,t et al. (1993) ",2.55,10,12,0,2,0,0,0,0,0,0,,12,
"benzoic acid, 2,6-dichloro-, methyl ester",C8H6Cl2O2,014920-87-7,COC(=O)c1c(Cl)cccc1Cl,"sotomatsu,t et al. (1993) ",2.79,8,6,0,2,0,0,0,2,0,0,,12,
cytochalasen-b,C29H37N1O5,014930-96-2,CC1CC=CC2C(O)C(=C)C(C)C3C(Cc4ccccc4)NC(=O)C23OC(=O)C=CC(O)CCC1,"hansch,c et al. (1995) ",3.37,29,37,1,5,0,0,0,0,0,0,,35,
4-pentylphenol,C11H16O1,014938-35-3,CCCCCc1ccc(O)cc1,"hansch,c & leo,aj (1985) ",4.06,11,16,0,1,0,0,0,0,0,0,,12,
"5-amino-1,3,4-thiadiazole-2-sulfonamide",C2H4N4O2S2,014949-00-9,Nc1sc(nn1)[S](N)(=O)=O,"hansch,c & leo,aj (1985) ",-0.9,2,4,4,2,2,0,0,0,0,0,,10,
"4,8-dihydroxyquinoline",C9H7N1O2,014959-84-3,Oc1ccnc2c(O)cccc12,"hansch,c & leo,aj (1985) ",0.62,9,7,1,2,0,0,0,0,0,0,,12,
"1-[3,4-dihydroxy-5-(hydroxymethyl)oxolan-2-yl]-3-(phenylmethyl)pyrimidine-2,4-dione",C16H18N2O6,014985-34-3,OCC1OC(C(O)C1O)N2C=CC(=O)N(Cc3ccccc3)C2=O,"yamamoto,i et al. (1987) ",0.33,16,18,2,6,0,0,0,0,0,0,,24,
a4210/0179241,C21H24N2O2,015006-14-1,O=C1CC2OCCC3CN4CCC56C4CC3C2C5N1c7ccccc67,"hansch,c & leo,aj (1985) ",1.62,21,24,2,2,0,0,0,0,0,0,,25,
"4,5-dimethylquinolin-8-ol",C11H11N1O1,015011-28-6,Cc1ccnc2c(O)ccc(C)c12,"hansch,c & leo,aj (1985) ",2.71,11,11,1,1,0,0,0,0,0,0,,13,
quinazolin-4-amine,C8H7N3,015018-66-3,Nc1ncnc2ccccc12,"hansch,c & leo,aj (1985) ",1.28,8,7,3,0,0,0,0,0,0,0,,11,
"2,2,5,5-tetramethyloxolane",C8H16O1,015045-43-9,CC1(C)CCC(C)(C)O1,"hansch,c et al. (1995) ",2.06,8,16,0,1,0,0,0,0,0,0,,9,
4-methyl-1-nitrosopiperidine,C6H12N2O1,015104-03-7,CC1CCN(CC1)N=O,"hansch,c & leo,aj (1985) ",1.05,6,12,2,1,0,0,0,0,0,0,,9,
"1,1,2,3,3-pentachloropropane",C3H3Cl5,015104-61-7,ClC(Cl)C(Cl)C(Cl)Cl,chemicals inspection and testing institu (1992) ,3.23,3,3,0,0,0,0,0,5,0,0,,8,
"3,5,7-trimethyladamantan-1-amine",C13H23N1,015210-60-3,CC12CC3(C)CC(C)(C1)CC(N)(C2)C3,"hansch,c & leo,aj (1985) ",4.01,13,23,1,0,0,0,0,0,0,0,,14,
"benzenemethanol, 2,6-dichloro-",C7H6Cl2O1,015258-73-8,Clc1cccc(Cl)c1CO,"miyake,f et al. (1987) ",2.02,7,6,0,1,0,0,0,2,0,0,,10,
2-(3-methyl-4-methylsulfonylphenoxy)acetic acid,C10H12O5S1,015267-77-3,Cc1cc(OCC(O)=O)ccc1[S](C)(=O)=O,sangster (1994) ,0.54,10,12,0,5,1,0,0,0,0,0,,16,
"n,n-diethyl-2-naphthalen-1-yloxypropanamide",C17H21N1O2,015299-99-7,CCN(CC)C(=O)C(C)Oc1cccc2ccccc12,"hansch,c et al. (1995) ",3.36,17,21,1,2,0,0,0,0,0,0,,20,
"4-[4-(2-oxo-3-propanoylbenzimidazol-1-yl)piperidin-1-yl]-2,2-di(phenyl)butanenitrile",C31H32N4O2,015301-48-1,O=C3N(C(=O)CC)c4ccccc4N3C1CCN(CCC(C(#N))(c5ccccc5)c2ccccc2)CC1,sangster (1993) ,4.8,31,32,4,2,0,0,0,0,0,0,,37,
"phenylacetic acid,2-(2',6'-dichloro-3-methyl)ani",C15H13Cl2N1O2,015307-71-8,Cc1c(Cl)c(Nc2c(CC(=O)(O))cccc2)c(Cl)cc1,"hansch,c et al. (1995) ",4.93,15,13,1,2,0,0,0,2,0,0,,20,
diclofenac,C14H11Cl2N1O2,015307-86-5,OC(=O)Cc1ccccc1Nc2c(Cl)cccc2Cl,"avdeef,a (1997) ",4.51,14,11,1,2,0,0,0,2,0,0,,19,
"5-tert-butyl-5-ethyl-1,3-diazinane-2,4,6-trione",C10H16N2O3,015379-32-5,CCC1(C(=O)NC(=O)NC1=O)C(C)(C)C,"wong,o & mckeown,rh (1988) ",1.38,10,16,2,3,0,0,0,0,0,0,,15,
"acetamide, 2-cyano-n-(3,4-dichlorophenyl)-",C9H6Cl2N2O1,015386-80-8,Clc1ccc(NC(=O)CC#N)cc1Cl,pomona (1987) ,2.72,9,6,2,1,0,0,0,2,0,0,,14,
m-chloro-n-phenylsuccinimide,C10H8Cl1N1O2,015386-99-9,Clc1cccc(c1)N2C(=O)CCC2=O,"hansch,c & leo,aj (1985) ",0.98,10,8,1,2,0,0,0,1,0,0,,14,
"1-(2,4,6-trimethoxyphenyl)propan-2-amine",C12H19N1O3,015402-79-6,COc1cc(OC)c(CC(C)N)c(OC)c1,"hansch,c & leo,aj (1985) ",1.57,12,19,1,3,0,0,0,0,0,0,,16,
"1-(2,3-dimethoxyphenyl)propan-2-amine",C11H17N1O2,015402-81-0,COc1cccc(CC(C)N)c1OC,pomona (1987) ,1.49,11,17,1,2,0,0,0,0,0,0,,14,
"1-phenylimidazolidine-2,4-dione",C9H8N2O2,015414-78-5,O=C1CN(C(=O)N1)c2ccccc2,"lipinski,ca et al. (1991) ",0.83,9,8,2,2,0,0,0,0,0,0,,13,
n-methyl-2-(phenoxy)acetamide,C9H11N1O2,015422-25-0,CNC(=O)COc1ccccc1,"hansch,c et al. (1995) ",1.02,9,11,1,2,0,0,0,0,0,0,,12,
"2-(3-methylphenyl)indene-1,3-dione",C16H12O2,015432-98-1,Cc1cccc(c1)C2C(=O)c3ccccc3C2=O,sangster (1993) ,3.46,16,12,0,2,0,0,0,0,0,0,,18,
methyl (4-chlorophenyl)sulfonyl acetate,C9H9Cl1O4S1,015446-25-0,COC(=O)CS(=O)(=O)c1ccc(Cl)cc1,"he,y et al. (1995b) ",1.31,9,9,0,4,1,0,0,1,0,0,,15,
2-nitro-1-(4-nitrophenoxy)-4-(trifluoromethyl)benzene,C13H7F3N2O5,015457-05-3,[O-][N+](=O)c1ccc(Oc2ccc(cc2[N+]([O-])=O)C(F)(F)F)cc1,"hansch,c & leo,aj (1985) ",3.65,13,7,2,5,0,0,3,0,0,0,,23,
"1,3,5-triazine, 6-chloro-2,4-bis[(2-propenyl)ami",C9H12Cl1N5,015468-86-7,Clc1nc(NCC=C)nc(NCC=C)n1,"mitsutake,ki et al. (1986) ",2.75,9,12,5,0,0,0,0,1,0,0,,15,
1-[3-(trifluoromethyl)phenyl]piperazine,C11H13F3N2,015532-75-9,FC(F)(F)c1cccc(c1)N2CCNCC2,"caccia,s et al. (1985) ",2.43,11,13,2,0,0,0,3,0,0,0,,16,
chlortoluron,C10H13Cl1N2O1,015545-48-9,CN(C)C(=O)Nc1ccc(C)c(Cl)c1,"hansch,c et al. (1995) ",2.41,10,13,2,1,0,0,0,1,0,0,,14,
2-(3-methoxyphenyl)cyclohexan-1-one,C13H16O2,015547-89-4,COc1cccc(c1)C2CCCCC2=O,biobyte starlist (2009) ,2.42,13,16,0,2,0,0,0,0,0,0,,15,
4-pyridin-2-ylbutanamide,C9H12N2O1,015582-85-1,NC(=O)CCCc1ccccn1,"hansch,c et al. (1995) ",-0.01,9,12,2,1,0,0,0,0,0,0,,12,
3-pyridin-2-ylpropan-1-amine,C8H12N2,015583-16-1,NCCCc1ccccn1,"hansch,c et al. (1995) ",0.49,8,12,2,0,0,0,0,0,0,0,,10,
"1-(2,5-dimethoxy-4-methylphenyl)propan-2-amine",C12H19N1O2,015588-95-1,COc1cc(CC(C)N)c(OC)cc1C,"hansch,c et al. (1995) ",2.24,12,19,1,2,0,0,0,0,0,0,,15,
n-[(1-ethylpyrrolidin-2-yl)methyl]-2-methoxy-5-sulfamoylbenzamide,C15H23N3O4S1,015676-16-1,CCN1CCCC1CNC(=O)c2cc(ccc2OC)[S](N)(=O)=O,"hoegberg,t et al. 1986 ",0.57,15,23,3,4,1,0,0,0,0,0,,23,
7-[(2-amino-2-phenylacetyl)amino]-3-methyl-8-oxo-5-thia-1-azabicyclo[4.2.0]oct-2-ene-2-carboxylic acid,C16H17N3O4S1,015686-71-2,CC1=C(N2C(SC1)C(NC(=O)C(N)c3ccccc3)C2=O)C(O)=O,"hansch,c et al. (1995) ",0.65,16,17,3,4,1,0,0,0,0,0,,24,
2-[4-(2-methylpropyl)phenyl]propanoic acid,C13H18O2,015687-27-1,CC(C)Cc1ccc(cc1)C(C)C(O)=O,"avdeef,a (1997) ",3.97,13,18,0,2,0,0,0,0,0,0,,15,
2-ethyl-3-methylpyrazine,C7H10N2,015707-23-0,CCc1nccnc1C,"yamagami,c et al. (1991) ",1.07,7,10,2,0,0,0,0,0,0,0,,9,
"2,3-diethylpyrazine",C8H12N2,015707-24-1,CCc1nccnc1CC,"yamagami,c et al. (1991) ",1.51,8,12,2,0,0,0,0,0,0,0,,10,
2-chlorobenzal acetylacetone,C12H11Cl1O2,015725-14-1,CC(=O)C(=Cc1ccccc1Cl)C(C)=O,"hansch,c et al. (1995) ",2.19,12,11,0,2,0,0,0,1,0,0,,15,
3-chlorobenzal acetylacetone,C12H11Cl1O2,015725-15-2,CC(=O)C(=Cc1cccc(Cl)c1)C(C)=O,"hansch,c et al. (1995) ",2.26,12,11,0,2,0,0,0,1,0,0,,15,
"3-[(2-methoxyphenyl)methylidene]pentane-2,4-dione",C13H14O3,015725-16-3,COc1ccccc1C=C(C(C)=O)C(C)=O,"hansch,c et al. (1995) ",1.73,13,14,0,3,0,0,0,0,0,0,,16,
"3-[(4-methoxyphenyl)methylidene]pentane-2,4-dione",C13H14O3,015725-17-4,COc1ccc(cc1)C=C(C(C)=O)C(C)=O,"hansch,c et al. (1995) ",1.73,13,14,0,3,0,0,0,0,0,0,,16,
"3-[(2,4-dimethoxyphenyl)methylidene]pentane-2,4-dione",C14H16O4,015725-18-5,COc1ccc(C=C(C(C)=O)C(C)=O)c(OC)c1,"hansch,c et al. (1995) ",1.88,14,16,0,4,0,0,0,0,0,0,,18,
"ethylacetoacetate,3-fluorobenzal",C13H13F1O3,015725-21-0,CC(=O)C(=Cc1cccc(F)c1)C(=O)OCC,"hansch,c et al. (1995) ",2.46,13,13,0,3,0,0,1,0,0,0,,17,
"ethylacetoacetate,2-chlorobenzal",C13H13Cl1O3,015725-22-1,CC(=O)C(=Cc1ccccc1Cl)C(=O)OCC,"hansch,c et al. (1995) ",2.84,13,13,0,3,0,0,0,1,0,0,,17,
"ethylacetoacetate,3-chlorobenzal",C13H13Cl1O3,015725-23-2,CC(=O)C(=Cc1cccc(Cl)c1)C(=O)OCC,"hansch,c et al. (1995) ",2.97,13,13,0,3,0,0,0,1,0,0,,17,
"ethylacetoacetate,2-meo benzal",C14H16O4,015725-24-3,CC(=O)C(=Cc1ccccc1OC)C(=O)OCC,"hansch,c et al. (1995) ",2.39,14,16,0,4,0,0,0,0,0,0,,18,
"ethylacetoacetate,3-meo benzal",C14H16O4,015725-25-4,CC(=O)C(=Cc1cc(OC)ccc1)C(=O)OCC,"hansch,c et al. (1995) ",2.34,14,16,0,4,0,0,0,0,0,0,,18,
"ethylacetoacetate,4-meo benzal",C14H16O4,015725-26-5,CC(=O)C(=Cc1ccc(OC)cc1)C(=O)OCC,"hansch,c et al. (1995) ",2.46,14,16,0,4,0,0,0,0,0,0,,18,
"ethylacetoacetate, 3-eto benzal",C15H18O4,015725-27-6,CC(=O)C(=Cc1cc(OCC)ccc1)C(=O)OCC,"hansch,c et al. (1995) ",2.71,15,18,0,4,0,0,0,0,0,0,,19,
"ethylacetoacetate,3-pro benzal",C16H20O4,015725-28-7,CC(=O)C(=Cc1cccc(OCCC)c1)C(=O)OCC,"hansch,c et al. (1995) ",3.34,16,20,0,4,0,0,0,0,0,0,,20,
"ethylacetoacetate,2,4-diclbenzal",C13H12Cl2O3,015725-29-8,CC(=O)C(=Cc1ccc(Cl)cc1Cl)C(=O)OCC,"hansch,c et al. (1995) ",3.67,13,12,0,3,0,0,0,2,0,0,,18,
"ethylacetoacetate,2,6-diclbenzal",C13H12Cl2O3,015725-30-1,CC(=O)C(=Cc1c(Cl)cccc1Cl)C(=O)OCC,"hansch,c et al. (1995) ",2.86,13,12,0,3,0,0,0,2,0,0,,18,
"ethylacetoacetate,3,4-diclbenzal",C13H12Cl2O3,015725-31-2,CC(=O)C(=Cc1cc(Cl)c(Cl)cc1)C(=O)OCC,"hansch,c et al. (1995) ",3.92,13,12,0,3,0,0,0,2,0,0,,18,
"ethylacetoacetate,2,4-dimeo benzal",C15H18O5,015725-32-3,CC(=O)C(=Cc1ccc(OC)cc1OC)C(=O)OCC,"hansch,c et al. (1995) ",2.41,15,18,0,5,0,0,0,0,0,0,,20,
"diethylmalonate,3-me benzal",C15H18O4,015725-33-4,O(CC)C(=O)C(C(=O)OCC)=Cc1cccc(C)c1,"hansch,c et al. (1995) ",3.55,15,18,0,4,0,0,0,0,0,0,,19,
diethyl 2-[(3-ethoxyphenyl)methylidene]propanedioate,C16H20O5,015725-37-8,CCOC(=O)C(=Cc1cccc(OCC)c1)C(=O)OCC,"hansch,c et al. (1995) ",3.39,16,20,0,5,0,0,0,0,0,0,,21,
diethyl 2-[(3-propoxyphenyl)methylidene]propanedioate,C17H22O5,015725-38-9,CCCOc1cccc(c1)C=C(C(=O)OCC)C(=O)OCC,"hansch,c et al. (1995) ",4,17,22,0,5,0,0,0,0,0,0,,22,
diethyl 2-[(3-butoxyphenyl)methylidene]propanedioate,C18H24O5,015725-39-0,CCCCOc1cccc(c1)C=C(C(=O)OCC)C(=O)OCC,"hansch,c et al. (1995) ",4.03,18,24,0,5,0,0,0,0,0,0,,23,
"3-buten-2-one,4-(3-methylphenyl)-",C11H12O1,015753-84-1,Cc1cccc(C=CC(=O)(C))c1,"yamagami,c et al. (1998) ",2.68,11,12,0,1,0,0,0,0,0,0,,12,
"3-[(4-bromophenyl)methylidene]pentane-2,4-dione",C12H11Br1O2,015795-19-4,CC(=O)C(=Cc1ccc(Br)cc1)C(C)=O,"hansch,c et al. (1995) ",2.75,12,11,0,2,0,0,0,0,1,0,,15,
phenyl 3-methylbutanoate,C11H14O2,015806-38-9,CC(C)CC(=O)Oc1ccccc1,"yang,h et al. (1987) ",3.18,11,14,0,2,0,0,0,0,0,0,,13,
"3-[(4-methylphenyl)methylidene]pentane-2,4-dione",C13H14O2,015818-09-4,CC(=O)C(=Cc1ccc(C)cc1)C(C)=O,"hansch,c et al. (1995) ",2.14,13,14,0,2,0,0,0,0,0,0,,15,
"3-[(3-methoxyphenyl)methylidene]pentane-2,4-dione",C13H14O3,015818-10-7,CC(=O)C(C(=O)C)=Cc1cc(OC)ccc1,"hansch,c & leo,aj (1985) ",1.79,13,14,0,3,0,0,0,0,0,0,,16,
"diethyl 2-[(3,4-dimethoxyphenyl)methylidene]propanedioate",C16H20O6,015818-13-0,CCOC(=O)C(=Cc1ccc(OC)c(OC)c1)C(=O)OCC,pomona (1987) ,2.89,16,20,0,6,0,0,0,0,0,0,,22,
"3-[(4-fluorophenyl)methylidene]pentane-2,4-dione",C12H11F1O2,015851-94-2,CC(=O)C(=Cc1ccc(F)cc1)C(C)=O,"hansch,c & leo,aj (1985) ",1.65,12,11,0,2,0,0,1,0,0,0,,15,
1h-indole-5-carbonitrile,C9H6N2,015861-36-6,N#Cc1ccc2[nH]ccc2c1,"hansch,c et al. (1995) ",2.38,9,6,2,0,0,0,0,0,0,0,,11,
1h-indole-6-carbonitrile,C9H6N2,015861-36-6,N#Cc1ccc2cc[nH]c2c1,"hansch,c et al. (1995) ",2.38,9,6,2,0,0,0,0,0,0,0,,11,
"2,4,5-trichlorobiphenyl",C12H7Cl3,015862-07-4,Clc1cc(Cl)c(cc1Cl)c2ccccc2,"hansch,c & leo,aj (1985) ",5.81,12,7,0,0,0,0,0,3,0,0,,15,
chloralose,C8H11Cl3O6,015879-93-3,OC[C@@H](O)[C@H]1OC2O[C@@H](O[C@@H]2[C@H]1O)C(Cl)(Cl)Cl,sangster (1994) ,1.02,8,11,0,6,0,0,0,3,0,0,,17,
"cyclohexanecarboxamide, n-(3,4-dichlorophenyl)-",C13H15Cl2N1O1,015907-85-4,Clc1ccc(NC(=O)C2CCCCC2)cc1Cl,pomona (1987) ,4.72,13,15,1,1,0,0,0,2,0,0,,17,
3me5(5no2-2-furfuril)2-s-thiazol-4one,C9H6N2O4S2,015913-35-6,CN1C(=S)SC(=Cc2ccc(N(=O)(=O))o2)C1(=O),"hansch,c & leo,aj (1985) ",1.06,9,6,2,4,2,0,0,0,0,0,,17,
"hydrazinecarboxamide, n-(3-methylphenyl)-",C8H11N3O1,015940-62-2,Cc1cccc(NC(=O)NN)c1,"kramer,cr & beck,l (1981) ",0.68,8,11,3,1,0,0,0,0,0,0,,12,
"2,3,4-trichlorophenol",C6H3Cl3O1,015950-66-0,Oc1ccc(Cl)c(Cl)c1Cl,"hansch,c et al. (1995) ",3.8,6,3,0,1,0,0,0,3,0,0,,10,
phenylsulfamide,C6H8N2O2S1,015959-53-2,N[S](=O)(=O)Nc1ccccc1,"hansch,c et al. (1995) ",0.4,6,8,2,2,1,0,0,0,0,0,,11,
"2,2',6,6'-tetrachlorobiphenyl",C12H6Cl4,015968-05-5,Clc1cccc(Cl)c1c2c(Cl)cccc2Cl,"debruijn,j et al. (1989) ",5.94,12,6,0,0,0,0,0,4,0,0,,16,
alachlor,C14H20Cl1N1O2,015972-60-8,CCc1cccc(CC)c1N(COC)C(=O)CCl,"hansch,c et al. (1995) ",3.52,14,20,1,2,0,0,0,1,0,0,,18,
2-methyl-3-propylpyrazine,C8H12N2,015986-80-8,CCCc1nccnc1C,"yamagami,c et al. (1991) ",1.57,8,12,2,0,0,0,0,0,0,0,,10,
2-butyl-3-methylpyrazine,C9H14N2,015987-00-5,CCCCc1nccnc1C,"yamagami,c et al. (1991) ",2.1,9,14,2,0,0,0,0,0,0,0,,11,